<?xml version="1.0"?>
<VTKFile type="UnstructuredGrid"  version="0.1"  >
<UnstructuredGrid>
<Piece  NumberOfPoints="6561" NumberOfCells="12800">
<Points>
<DataArray  type="Float32"  NumberOfComponents="3"  format="ascii">0 0 0  0.0125 0 0  0.025 0 0  0.0375 0 0  0.05 0 0  0.0625 0 0  0.075 0 0  0.0875 0 0  0.1 0 0  0.1125 0 0  0.125 0 0  0.1375 0 0  0.15 0 0  0.1625 0 0  0.175 0 0  0.1875 0 0  0.2 0 0  0.2125 0 0  0.225 0 0  0.2375 0 0  0.25 0 0  0.2625 0 0  0.275 0 0  0.2875 0 0  0.3 0 0  0.3125 0 0  0.325 0 0  0.3375 0 0  0.35 0 0  0.3625 0 0  0.375 0 0  0.3875 0 0  0.4 0 0  0.4125 0 0  0.425 0 0  0.4375 0 0  0.45 0 0  0.4625 0 0  0.475 0 0  0.4875 0 0  0.5 0 0  0.5125 0 0  0.525 0 0  0.5375 0 0  0.55 0 0  0.5625 0 0  0.575 0 0  0.5875 0 0  0.6 0 0  0.6125 0 0  0.625 0 0  0.6375 0 0  0.65 0 0  0.6625 0 0  0.675 0 0  0.6875 0 0  0.7 0 0  0.7125 0 0  0.725 0 0  0.7375 0 0  0.75 0 0  0.7625 0 0  0.775 0 0  0.7875 0 0  0.8 0 0  0.8125 0 0  0.825 0 0  0.8375 0 0  0.85 0 0  0.8625 0 0  0.875 0 0  0.8875 0 0  0.9 0 0  0.9125 0 0  0.925 0 0  0.9375 0 0  0.95 0 0  0.9625 0 0  0.975 0 0  0.9875 0 0  1 0 0  0 0.0125 0  0.0125 0.0125 0  0.025 0.0125 0  0.0375 0.0125 0  0.05 0.0125 0  0.0625 0.0125 0  0.075 0.0125 0  0.0875 0.0125 0  0.1 0.0125 0  0.1125 0.0125 0  0.125 0.0125 0  0.1375 0.0125 0  0.15 0.0125 0  0.1625 0.0125 0  0.175 0.0125 0  0.1875 0.0125 0  0.2 0.0125 0  0.2125 0.0125 0  0.225 0.0125 0  0.2375 0.0125 0  0.25 0.0125 0  0.2625 0.0125 0  0.275 0.0125 0  0.2875 0.0125 0  0.3 0.0125 0  0.3125 0.0125 0  0.325 0.0125 0  0.3375 0.0125 0  0.35 0.0125 0  0.3625 0.0125 0  0.375 0.0125 0  0.3875 0.0125 0  0.4 0.0125 0  0.4125 0.0125 0  0.425 0.0125 0  0.4375 0.0125 0  0.45 0.0125 0  0.4625 0.0125 0  0.475 0.0125 0  0.4875 0.0125 0  0.5 0.0125 0  0.5125 0.0125 0  0.525 0.0125 0  0.5375 0.0125 0  0.55 0.0125 0  0.5625 0.0125 0  0.575 0.0125 0  0.5875 0.0125 0  0.6 0.0125 0  0.6125 0.0125 0  0.625 0.0125 0  0.6375 0.0125 0  0.65 0.0125 0  0.6625 0.0125 0  0.675 0.0125 0  0.6875 0.0125 0  0.7 0.0125 0  0.7125 0.0125 0  0.725 0.0125 0  0.7375 0.0125 0  0.75 0.0125 0  0.7625 0.0125 0  0.775 0.0125 0  0.7875 0.0125 0  0.8 0.0125 0  0.8125 0.0125 0  0.825 0.0125 0  0.8375 0.0125 0  0.85 0.0125 0  0.8625 0.0125 0  0.875 0.0125 0  0.8875 0.0125 0  0.9 0.0125 0  0.9125 0.0125 0  0.925 0.0125 0  0.9375 0.0125 0  0.95 0.0125 0  0.9625 0.0125 0  0.975 0.0125 0  0.9875 0.0125 0  1 0.0125 0  0 0.025 0  0.0125 0.025 0  0.025 0.025 0  0.0375 0.025 0  0.05 0.025 0  0.0625 0.025 0  0.075 0.025 0  0.0875 0.025 0  0.1 0.025 0  0.1125 0.025 0  0.125 0.025 0  0.1375 0.025 0  0.15 0.025 0  0.1625 0.025 0  0.175 0.025 0  0.1875 0.025 0  0.2 0.025 0  0.2125 0.025 0  0.225 0.025 0  0.2375 0.025 0  0.25 0.025 0  0.2625 0.025 0  0.275 0.025 0  0.2875 0.025 0  0.3 0.025 0  0.3125 0.025 0  0.325 0.025 0  0.3375 0.025 0  0.35 0.025 0  0.3625 0.025 0  0.375 0.025 0  0.3875 0.025 0  0.4 0.025 0  0.4125 0.025 0  0.425 0.025 0  0.4375 0.025 0  0.45 0.025 0  0.4625 0.025 0  0.475 0.025 0  0.4875 0.025 0  0.5 0.025 0  0.5125 0.025 0  0.525 0.025 0  0.5375 0.025 0  0.55 0.025 0  0.5625 0.025 0  0.575 0.025 0  0.5875 0.025 0  0.6 0.025 0  0.6125 0.025 0  0.625 0.025 0  0.6375 0.025 0  0.65 0.025 0  0.6625 0.025 0  0.675 0.025 0  0.6875 0.025 0  0.7 0.025 0  0.7125 0.025 0  0.725 0.025 0  0.7375 0.025 0  0.75 0.025 0  0.7625 0.025 0  0.775 0.025 0  0.7875 0.025 0  0.8 0.025 0  0.8125 0.025 0  0.825 0.025 0  0.8375 0.025 0  0.85 0.025 0  0.8625 0.025 0  0.875 0.025 0  0.8875 0.025 0  0.9 0.025 0  0.9125 0.025 0  0.925 0.025 0  0.9375 0.025 0  0.95 0.025 0  0.9625 0.025 0  0.975 0.025 0  0.9875 0.025 0  1 0.025 0  0 0.0375 0  0.0125 0.0375 0  0.025 0.0375 0  0.0375 0.0375 0  0.05 0.0375 0  0.0625 0.0375 0  0.075 0.0375 0  0.0875 0.0375 0  0.1 0.0375 0  0.1125 0.0375 0  0.125 0.0375 0  0.1375 0.0375 0  0.15 0.0375 0  0.1625 0.0375 0  0.175 0.0375 0  0.1875 0.0375 0  0.2 0.0375 0  0.2125 0.0375 0  0.225 0.0375 0  0.2375 0.0375 0  0.25 0.0375 0  0.2625 0.0375 0  0.275 0.0375 0  0.2875 0.0375 0  0.3 0.0375 0  0.3125 0.0375 0  0.325 0.0375 0  0.3375 0.0375 0  0.35 0.0375 0  0.3625 0.0375 0  0.375 0.0375 0  0.3875 0.0375 0  0.4 0.0375 0  0.4125 0.0375 0  0.425 0.0375 0  0.4375 0.0375 0  0.45 0.0375 0  0.4625 0.0375 0  0.475 0.0375 0  0.4875 0.0375 0  0.5 0.0375 0  0.5125 0.0375 0  0.525 0.0375 0  0.5375 0.0375 0  0.55 0.0375 0  0.5625 0.0375 0  0.575 0.0375 0  0.5875 0.0375 0  0.6 0.0375 0  0.6125 0.0375 0  0.625 0.0375 0  0.6375 0.0375 0  0.65 0.0375 0  0.6625 0.0375 0  0.675 0.0375 0  0.6875 0.0375 0  0.7 0.0375 0  0.7125 0.0375 0  0.725 0.0375 0  0.7375 0.0375 0  0.75 0.0375 0  0.7625 0.0375 0  0.775 0.0375 0  0.7875 0.0375 0  0.8 0.0375 0  0.8125 0.0375 0  0.825 0.0375 0  0.8375 0.0375 0  0.85 0.0375 0  0.8625 0.0375 0  0.875 0.0375 0  0.8875 0.0375 0  0.9 0.0375 0  0.9125 0.0375 0  0.925 0.0375 0  0.9375 0.0375 0  0.95 0.0375 0  0.9625 0.0375 0  0.975 0.0375 0  0.9875 0.0375 0  1 0.0375 0  0 0.05 0  0.0125 0.05 0  0.025 0.05 0  0.0375 0.05 0  0.05 0.05 0  0.0625 0.05 0  0.075 0.05 0  0.0875 0.05 0  0.1 0.05 0  0.1125 0.05 0  0.125 0.05 0  0.1375 0.05 0  0.15 0.05 0  0.1625 0.05 0  0.175 0.05 0  0.1875 0.05 0  0.2 0.05 0  0.2125 0.05 0  0.225 0.05 0  0.2375 0.05 0  0.25 0.05 0  0.2625 0.05 0  0.275 0.05 0  0.2875 0.05 0  0.3 0.05 0  0.3125 0.05 0  0.325 0.05 0  0.3375 0.05 0  0.35 0.05 0  0.3625 0.05 0  0.375 0.05 0  0.3875 0.05 0  0.4 0.05 0  0.4125 0.05 0  0.425 0.05 0  0.4375 0.05 0  0.45 0.05 0  0.4625 0.05 0  0.475 0.05 0  0.4875 0.05 0  0.5 0.05 0  0.5125 0.05 0  0.525 0.05 0  0.5375 0.05 0  0.55 0.05 0  0.5625 0.05 0  0.575 0.05 0  0.5875 0.05 0  0.6 0.05 0  0.6125 0.05 0  0.625 0.05 0  0.6375 0.05 0  0.65 0.05 0  0.6625 0.05 0  0.675 0.05 0  0.6875 0.05 0  0.7 0.05 0  0.7125 0.05 0  0.725 0.05 0  0.7375 0.05 0  0.75 0.05 0  0.7625 0.05 0  0.775 0.05 0  0.7875 0.05 0  0.8 0.05 0  0.8125 0.05 0  0.825 0.05 0  0.8375 0.05 0  0.85 0.05 0  0.8625 0.05 0  0.875 0.05 0  0.8875 0.05 0  0.9 0.05 0  0.9125 0.05 0  0.925 0.05 0  0.9375 0.05 0  0.95 0.05 0  0.9625 0.05 0  0.975 0.05 0  0.9875 0.05 0  1 0.05 0  0 0.0625 0  0.0125 0.0625 0  0.025 0.0625 0  0.0375 0.0625 0  0.05 0.0625 0  0.0625 0.0625 0  0.075 0.0625 0  0.0875 0.0625 0  0.1 0.0625 0  0.1125 0.0625 0  0.125 0.0625 0  0.1375 0.0625 0  0.15 0.0625 0  0.1625 0.0625 0  0.175 0.0625 0  0.1875 0.0625 0  0.2 0.0625 0  0.2125 0.0625 0  0.225 0.0625 0  0.2375 0.0625 0  0.25 0.0625 0  0.2625 0.0625 0  0.275 0.0625 0  0.2875 0.0625 0  0.3 0.0625 0  0.3125 0.0625 0  0.325 0.0625 0  0.3375 0.0625 0  0.35 0.0625 0  0.3625 0.0625 0  0.375 0.0625 0  0.3875 0.0625 0  0.4 0.0625 0  0.4125 0.0625 0  0.425 0.0625 0  0.4375 0.0625 0  0.45 0.0625 0  0.4625 0.0625 0  0.475 0.0625 0  0.4875 0.0625 0  0.5 0.0625 0  0.5125 0.0625 0  0.525 0.0625 0  0.5375 0.0625 0  0.55 0.0625 0  0.5625 0.0625 0  0.575 0.0625 0  0.5875 0.0625 0  0.6 0.0625 0  0.6125 0.0625 0  0.625 0.0625 0  0.6375 0.0625 0  0.65 0.0625 0  0.6625 0.0625 0  0.675 0.0625 0  0.6875 0.0625 0  0.7 0.0625 0  0.7125 0.0625 0  0.725 0.0625 0  0.7375 0.0625 0  0.75 0.0625 0  0.7625 0.0625 0  0.775 0.0625 0  0.7875 0.0625 0  0.8 0.0625 0  0.8125 0.0625 0  0.825 0.0625 0  0.8375 0.0625 0  0.85 0.0625 0  0.8625 0.0625 0  0.875 0.0625 0  0.8875 0.0625 0  0.9 0.0625 0  0.9125 0.0625 0  0.925 0.0625 0  0.9375 0.0625 0  0.95 0.0625 0  0.9625 0.0625 0  0.975 0.0625 0  0.9875 0.0625 0  1 0.0625 0  0 0.075 0  0.0125 0.075 0  0.025 0.075 0  0.0375 0.075 0  0.05 0.075 0  0.0625 0.075 0  0.075 0.075 0  0.0875 0.075 0  0.1 0.075 0  0.1125 0.075 0  0.125 0.075 0  0.1375 0.075 0  0.15 0.075 0  0.1625 0.075 0  0.175 0.075 0  0.1875 0.075 0  0.2 0.075 0  0.2125 0.075 0  0.225 0.075 0  0.2375 0.075 0  0.25 0.075 0  0.2625 0.075 0  0.275 0.075 0  0.2875 0.075 0  0.3 0.075 0  0.3125 0.075 0  0.325 0.075 0  0.3375 0.075 0  0.35 0.075 0  0.3625 0.075 0  0.375 0.075 0  0.3875 0.075 0  0.4 0.075 0  0.4125 0.075 0  0.425 0.075 0  0.4375 0.075 0  0.45 0.075 0  0.4625 0.075 0  0.475 0.075 0  0.4875 0.075 0  0.5 0.075 0  0.5125 0.075 0  0.525 0.075 0  0.5375 0.075 0  0.55 0.075 0  0.5625 0.075 0  0.575 0.075 0  0.5875 0.075 0  0.6 0.075 0  0.6125 0.075 0  0.625 0.075 0  0.6375 0.075 0  0.65 0.075 0  0.6625 0.075 0  0.675 0.075 0  0.6875 0.075 0  0.7 0.075 0  0.7125 0.075 0  0.725 0.075 0  0.7375 0.075 0  0.75 0.075 0  0.7625 0.075 0  0.775 0.075 0  0.7875 0.075 0  0.8 0.075 0  0.8125 0.075 0  0.825 0.075 0  0.8375 0.075 0  0.85 0.075 0  0.8625 0.075 0  0.875 0.075 0  0.8875 0.075 0  0.9 0.075 0  0.9125 0.075 0  0.925 0.075 0  0.9375 0.075 0  0.95 0.075 0  0.9625 0.075 0  0.975 0.075 0  0.9875 0.075 0  1 0.075 0  0 0.0875 0  0.0125 0.0875 0  0.025 0.0875 0  0.0375 0.0875 0  0.05 0.0875 0  0.0625 0.0875 0  0.075 0.0875 0  0.0875 0.0875 0  0.1 0.0875 0  0.1125 0.0875 0  0.125 0.0875 0  0.1375 0.0875 0  0.15 0.0875 0  0.1625 0.0875 0  0.175 0.0875 0  0.1875 0.0875 0  0.2 0.0875 0  0.2125 0.0875 0  0.225 0.0875 0  0.2375 0.0875 0  0.25 0.0875 0  0.2625 0.0875 0  0.275 0.0875 0  0.2875 0.0875 0  0.3 0.0875 0  0.3125 0.0875 0  0.325 0.0875 0  0.3375 0.0875 0  0.35 0.0875 0  0.3625 0.0875 0  0.375 0.0875 0  0.3875 0.0875 0  0.4 0.0875 0  0.4125 0.0875 0  0.425 0.0875 0  0.4375 0.0875 0  0.45 0.0875 0  0.4625 0.0875 0  0.475 0.0875 0  0.4875 0.0875 0  0.5 0.0875 0  0.5125 0.0875 0  0.525 0.0875 0  0.5375 0.0875 0  0.55 0.0875 0  0.5625 0.0875 0  0.575 0.0875 0  0.5875 0.0875 0  0.6 0.0875 0  0.6125 0.0875 0  0.625 0.0875 0  0.6375 0.0875 0  0.65 0.0875 0  0.6625 0.0875 0  0.675 0.0875 0  0.6875 0.0875 0  0.7 0.0875 0  0.7125 0.0875 0  0.725 0.0875 0  0.7375 0.0875 0  0.75 0.0875 0  0.7625 0.0875 0  0.775 0.0875 0  0.7875 0.0875 0  0.8 0.0875 0  0.8125 0.0875 0  0.825 0.0875 0  0.8375 0.0875 0  0.85 0.0875 0  0.8625 0.0875 0  0.875 0.0875 0  0.8875 0.0875 0  0.9 0.0875 0  0.9125 0.0875 0  0.925 0.0875 0  0.9375 0.0875 0  0.95 0.0875 0  0.9625 0.0875 0  0.975 0.0875 0  0.9875 0.0875 0  1 0.0875 0  0 0.1 0  0.0125 0.1 0  0.025 0.1 0  0.0375 0.1 0  0.05 0.1 0  0.0625 0.1 0  0.075 0.1 0  0.0875 0.1 0  0.1 0
[...]
<PointData  Scalars="u"> 
<DataArray  type="Float32"  Name="u"  format="ascii">8.149249e-02  8.149262e-02  8.149289e-02  8.149331e-02  8.149388e-02  8.149460e-02  8.149547e-02  8.149648e-02  8.149761e-02  8.149888e-02  8.150025e-02  8.150174e-02  8.150333e-02  8.150501e-02  8.150677e-02  8.150861e-02  8.151050e-02  8.151246e-02  8.151446e-02  8.151649e-02  8.151856e-02  8.152064e-02  8.152273e-02  8.152482e-02  8.152690e-02  8.152897e-02  8.153101e-02  8.153302e-02  8.153500e-02  8.153692e-02  8.153880e-02  8.154061e-02  8.154236e-02  8.154404e-02  8.154565e-02  8.154717e-02  8.154862e-02  8.154997e-02  8.155123e-02  8.155240e-02  8.155347e-02  8.155445e-02  8.155532e-02  8.155610e-02  8.155677e-02  8.155735e-02  8.155782e-02  8.155820e-02  8.155848e-02  8.155866e-02  8.155876e-02  8.155876e-02  8.155868e-02  8.155851e-02  8.155827e-02  8.155796e-02  8.155757e-02  8.155713e-02  8.155662e-02  8.155607e-02  8.155547e-02  8.155483e-02  8.155416e-02  8.155347e-02  8.155276e-02  8.155204e-02  8.155132e-02  8.155060e-02  8.154990e-02  8.154921e-02  8.154855e-02  8.154793e-02  8.154735e-02  8.154682e-02  8.154634e-02  8.154593e-02  8.154558e-02  8.154531e-02  8.154512e-02  8.154502e-02  8.154502e-02  8.149275e-02  8.149284e-02  8.149310e-02  8.149352e-02  8.149410e-02  8.149482e-02  8.149569e-02  8.149670e-02  8.149784e-02  8.149911e-02  8.150049e-02  8.150198e-02  8.150357e-02  8.150526e-02  8.150702e-02  8.150886e-02  8.151076e-02  8.151272e-02  8.151473e-02  8.151677e-02  8.151883e-02  8.152092e-02  8.152301e-02  8.152511e-02  8.152720e-02  8.152927e-02  8.153131e-02  8.153333e-02  8.153530e-02  8.153723e-02  8.153911e-02  8.154093e-02  8.154268e-02  8.154437e-02  8.154597e-02  8.154750e-02  8.154894e-02  8.155030e-02  8.155156e-02  8.155273e-02  8.155380e-02  8.155478e-02  8.155566e-02  8.155643e-02  8.155711e-02  8.155768e-02  8.155815e-02  8.155853e-02  8.155881e-02  8.155899e-02  8.155908e-02  8.155909e-02  8.155900e-02  8.155883e-02  8.155859e-02  8.155827e-02  8.155789e-02  8.155744e-02  8.155693e-02  8.155637e-02  8.155577e-02  8.155513e-02  8.155446e-02  8.155376e-02  8.155305e-02  8.155233e-02  8.155160e-02  8.155088e-02  8.155017e-02  8.154948e-02  8.154882e-02  8.154820e-02  8.154761e-02  8.154708e-02  8.154660e-02  8.154618e-02  8.154583e-02  8.154556e-02  8.154536e-02  8.154525e-02  8.154522e-02  8.149339e-02  8.149348e-02  8.149374e-02  8.149416e-02  8.149474e-02  8.149547e-02  8.149635e-02  8.149736e-02  8.149852e-02  8.149979e-02  8.150119e-02  8.150269e-02  8.150430e-02  8.150599e-02  8.150777e-02  8.150962e-02  8.151154e-02  8.151351e-02  8.151552e-02  8.151758e-02  8.151966e-02  8.152175e-02  8.152386e-02  8.152597e-02  8.152807e-02  8.153015e-02  8.153221e-02  8.153423e-02  8.153622e-02  8.153816e-02  8.154004e-02  8.154187e-02  8.154363e-02  8.154532e-02  8.154693e-02  8.154847e-02  8.154992e-02  8.155127e-02  8.155254e-02  8.155371e-02  8.155479e-02  8.155577e-02  8.155664e-02  8.155742e-02  8.155809e-02  8.155867e-02  8.155914e-02  8.155951e-02  8.155979e-02  8.155997e-02  8.156006e-02  8.156005e-02  8.155996e-02  8.155979e-02  8.155954e-02  8.155921e-02  8.155882e-02  8.155836e-02  8.155785e-02  8.155728e-02  8.155667e-02  8.155602e-02  8.155534e-02  8.155463e-02  8.155391e-02  8.155317e-02  8.155244e-02  8.155170e-02  8.155098e-02  8.155029e-02  8.154961e-02  8.154898e-02  8.154839e-02  8.154784e-02  8.154735e-02  8.154693e-02  8.154657e-02  8.154629e-02  8.154609e-02  8.154596e-02  8.154592e-02  8.149444e-02  8.149453e-02  8.149479e-02  8.149521e-02  8.149580e-02  8.149654e-02  8.149743e-02  8.149847e-02  8.149963e-02  8.150093e-02  8.150234e-02  8.150386e-02  8.150549e-02  8.150720e-02  8.150900e-02  8.151087e-02  8.151281e-02  8.151480e-02  8.151684e-02  8.151891e-02  8.152101e-02  8.152313e-02  8.152526e-02  8.152738e-02  8.152950e-02  8.153160e-02  8.153368e-02  8.153572e-02  8.153772e-02  8.153967e-02  8.154157e-02  8.154341e-02  8.154519e-02  8.154689e-02  8.154851e-02  8.155005e-02  8.155151e-02  8.155288e-02  8.155415e-02  8.155533e-02  8.155641e-02  8.155739e-02  8.155826e-02  8.155904e-02  8.155971e-02  8.156029e-02  8.156076e-02  8.156113e-02  8.156140e-02  8.156157e-02  8.156165e-02  8.156164e-02  8.156154e-02  8.156136e-02  8.156109e-02  8.156076e-02  8.156035e-02  8.155988e-02  8.155935e-02  8.155877e-02  8.155814e-02  8.155748e-02  8.155678e-02  8.155606e-02  8.155532e-02  8.155456e-02  8.155381e-02  8.155306e-02  8.155233e-02  8.155161e-02  8.155092e-02  8.155027e-02  8.154966e-02  8.154910e-02  8.154860e-02  8.154816e-02  8.154780e-02  8.154750e-02  8.154729e-02  8.154716e-02  8.154712e-02  8.149589e-02  8.149598e-02  8.149625e-02  8.149668e-02  8.149728e-02  8.149804e-02  8.149895e-02  8.150000e-02  8.150119e-02  8.150250e-02  8.150394e-02  8.150549e-02  8.150714e-02  8.150888e-02  8.151071e-02  8.151261e-02  8.151457e-02  8.151659e-02  8.151866e-02  8.152076e-02  8.152289e-02  8.152503e-02  8.152718e-02  8.152934e-02  8.153148e-02  8.153360e-02  8.153570e-02  8.153777e-02  8.153979e-02  8.154176e-02  8.154368e-02  8.154554e-02  8.154733e-02  8.154905e-02  8.155069e-02  8.155224e-02  8.155371e-02  8.155509e-02  8.155637e-02  8.155755e-02  8.155864e-02  8.155962e-02  8.156050e-02  8.156128e-02  8.156195e-02  8.156252e-02  8.156298e-02  8.156335e-02  8.156361e-02  8.156378e-02  8.156385e-02  8.156383e-02  8.156371e-02  8.156352e-02  8.156324e-02  8.156289e-02  8.156246e-02  8.156198e-02  8.156143e-02  8.156083e-02  8.156018e-02  8.155949e-02  8.155877e-02  8.155803e-02  8.155726e-02  8.155649e-02  8.155571e-02  8.155494e-02  8.155418e-02  8.155345e-02  8.155274e-02  8.155206e-02  8.155143e-02  8.155086e-02  8.155034e-02  8.154988e-02  8.154950e-02  8.154919e-02  8.154897e-02  8.154883e-02  8.154879e-02  8.149775e-02  8.149784e-02  8.149811e-02  8.149856e-02  8.149917e-02  8.149994e-02  8.150087e-02  8.150195e-02  8.150317e-02  8.150451e-02  8.150598e-02  8.150756e-02  8.150924e-02  8.151102e-02  8.151288e-02  8.151481e-02  8.151681e-02  8.151887e-02  8.152097e-02  8.152310e-02  8.152526e-02  8.152744e-02  8.152963e-02  8.153181e-02  8.153399e-02  8.153614e-02  8.153827e-02  8.154036e-02  8.154241e-02  8.154441e-02  8.154636e-02  8.154824e-02  8.155005e-02  8.155178e-02  8.155344e-02  8.155501e-02  8.155649e-02  8.155788e-02  8.155917e-02  8.156036e-02  8.156146e-02  8.156244e-02  8.156333e-02  8.156410e-02  8.156478e-02  8.156534e-02  8.156580e-02  8.156616e-02  8.156642e-02  8.156657e-02  8.156663e-02  8.156659e-02  8.156647e-02  8.156625e-02  8.156596e-02  8.156559e-02  8.156514e-02  8.156463e-02  8.156406e-02  8.156344e-02  8.156276e-02  8.156205e-02  8.156130e-02  8.156053e-02  8.155974e-02  8.155894e-02  8.155813e-02  8.155733e-02  8.155654e-02  8.155578e-02  8.155504e-02  8.155434e-02  8.155369e-02  8.155309e-02  8.155255e-02  8.155207e-02  8.155167e-02  8.155135e-02  8.155111e-02  8.155097e-02  8.155092e-02  8.150000e-02  8.150009e-02  8.150037e-02  8.150083e-02  8.150146e-02  8.150226e-02  8.150321e-02  8.150432e-02  8.150556e-02  8.150694e-02  8.150844e-02  8.151006e-02  8.151178e-02  8.151360e-02  8.151550e-02  8.151747e-02  8.151951e-02  8.152161e-02  8.152375e-02  8.152593e-02  8.152813e-02  8.153035e-02  8.153257e-02  8.153479e-02  8.153701e-02  8.153920e-02  8.154136e-02  8.154349e-02  8.154557e-02  8.154760e-02  8.154957e-02  8.155148e-02  8.155331e-02  8.155507e-02  8.155675e-02  8.155834e-02  8.155984e-02  8.156124e-02  8.156254e-02  8.156375e-02  8.156485e-02  8.156584e-02  8.156673e-02  8.156751e-02  8.156818e-02  8.156874e-02  8.156920e-02  8.156954e-02  8.156979e-02  8.156993e-02  8.156998e-02  8.156993e-02  8.156978e-02  8.156955e-02  8.156923e-02  8.156884e-02  8.156837e-02  8.156783e-02  8.156723e-02  8.156658e-02  8.156587e-02  8.156513e-02  8.156435e-02  8.156355e-02  8.156272e-02  8.156189e-02  8.156105e-02  8.156022e-02  8.155940e-02  8.155860e-02  8.155783e-02  8.155710e-02  8.155642e-02  8.155579e-02  8.155522e-02  8.155472e-02  8.155430e-02  8.155397e-02  8.155372e-02  8.155356e-02  8.155351e-02  8.150264e-02  8.150273e-02  8.150302e-02  8.150350e-02  8.150415e-02  8.150497e-02  8.150595e-02  8.150709e-02  8.150837e-02  8.150979e-02  8.151133e-02  8.151299e-02  8.151475e-02  8.151661e-02  8.151856e-02  8.152058e-02  8.152267e-02  8.152481e-02  8.152700e-02  8.152922e-02  8.153147e-02  8.153373e-02  8.153600e-02  8.153827e-02  8.154052e-02  8.154276e-02  8.154496e-02  8.154712e-02  8.154924e-02  8.155131e-02  8.155331e-02  8.155525e-02  8.155711e-02  8.155890e-02  8.156060e-02  8.156221e-02  8.156373e-02  8.156515e-02  8.156647e-02  8.156768e-02  8.156879e-02  8.156979e-02  8.157068e-02  8.157146e-02  8.157213e-02  8.157269e-02  8.157314e-02  8.157348e-02  8.157371e-02  8.157384e-02  8.157387e-02  8.157380e-02  8.157364e-02  8.157338e-02  8.157304e-02  8.157262e-02  8.157212e-02  8.157155e-02  8.157092e-02  8.157024e-02  8.156950e-02  8.156872e-02  8.156790e-02  8.156706e-02  8.156620e-02  8.156533e-02  8.156445e-02  8.156358e-02  8.156273e-02  8.156189e-02  8.156109e-02  8.156032e-02  8.155961e-02  8.155895e-02  8.155835e-02  8.155783e-02  8.155739e-02  8.155703e-02  8.155677e-02  8.155661e-02  8.155655e-02  8.150566e-02  8.150576e-02  8.150606e-02  8.150655e-02  8.150722e-02  8.150807e-02  8.150909e-02  8.151026e-02  8.151158e-02  8.151303e-02  8.151462e-02  8.151633e-02  8.151814e-02  8.152005e-02  8.152204e-02  8.152412e-02  8.152626e-02  8.152845e-02  8.153069e-02  8.153297e-02  8.153527e-02  8.153758e-02  8.153990e-02  8.154222e-02  8.154452e-02  8.154680e-02  8.154905e-02  8.155126e-02  8.155341e-02  8.155552e-02  8.155756e-02  8.155953e-02  8.156143e-02  8.156324e-02  8.156497e-02  8.156661e-02  8.156815e-02  8.156959e-02  8.157092e-02  8.157215e-02  8.157327e-02  8.157428e-02  8.157517e-02  8.157595e-02  8.157662e-02  8.157718e-02  8.157762e-02  8.157795e-02  8.157817e-02  8.157829e-02  8.157830e-02  8.157820e-02  8.157802e-02  8.157774e-02  8.157737e-02  8.157692e-02  8.157639e-02  8.157579e-02  8.157512e-02  8.157440e-02  8.157362e-02  8.157280e-02  8.157195e-02  8.157106e-02  8.157016e-02  8.156925e-02  8.156833e-02  8.156742e-02  8.156652e-02  8.156565e-02  8.156480e-02  8.156400e-02  8.156325e-02  8.156256e-02  8.156193e-02  8.156138e-02  8.156091e-02  8.156054e-02  8.156026e-02  8.156009e-02  8.156003e-02  8.150906e-02  8.150916e-02  8.150947e-02  8.150998e-02  8.151068e-02  8.151156e-02  8.151260e-02  8.151381e-02  8.151518e-02  8.151668e-02  8.151831e-02  8.152007e-02  8.152193e-02  8.152390e-02  8.152595e-02  8.152808e-02  8.153027e-02  8.153253e-02  8.153483e-02  8.153716e-02  8.153951e-02  8.154189e-02  8.154426e-02  8.154663e-02  8.154899e-02  8.155132e-02  8.155361e-02  8.155587e-02  8.155807e-02  8.156022e-02  8.156230e-02  8.156431e-02  8.156624e-02  8.156809e-02  8.156985e-02  8.157151e-02  8.157307e-02  8.157453e-02  8.157589e-02  8.157713e-02  8.157826e-02  8.157928e-02  8.158018e-02  8.158096e-02  8.158163e-02  8.158218e-02  8.158261e-02  8.158293e-02  8.158314e-02  8.158324e-02  8.158323e-02  8.158312e-02  8.158290e-02  8.158259e-02  8.158220e-02  8.158171e-02  8.158115e-02  8.158051e-02  8.157981e-02  8.157904e-02  8.157823e-02  8.157736e-02  8.157647e-02  8.157554e-02  8.157459e-02  8.157363e-02  8.157267e-02  8.157171e-02  8.157077e-02  8.156985e-02  8.156896e-02  8.156812e-02  8.156733e-02  8.156660e-02  8.156594e-02  8.156536e-02  8.156487e-02  8.156447e-02  8.156417e-02  8.156399e-02  8.156393e-02  8.151282e-02  8.151293e-02  8.151325e-02  8.151378e-02  8.151450e-02  8.151541e-02  8.151650e-02  8.151775e-02  8.151915e-02  8.152071e-02  8.152239e-02  8.152420e-02  8.152612e-02  8.152814e-02  8.153026e-02  8.153245e-02  8.153471e-02  8.153702e-02  8.153938e-02  8.154178e-02  8.154419e-02  8.154663e-02  8.154906e-02  8.155149e-02  8.155390e-02  8.155629e-02  8.155864e-02  8.156094e-02  8.156320e-02  8.156539e-02  8.156752e-02  8.156957e-02  8.157154e-02  8.157342e-02  8.157521e-02  8.157690e-02  8.157849e-02  8.157997e-02  8.158135e-02  8.158261e-02  8.158375e-02  8.158477e-02  8.158568e-02  8.158646e-02  8.158713e-02  8.158768e-02  8.158810e-02  8.158841e-02  8.158860e-02  8.158868e-02  8.158865e-02  8.158852e-02  8.158828e-02  8.158794e-02  8.158751e-02  8.158699e-02  8.158639e-02  8.158571e-02  8.158497e-02  8.158416e-02  8.158330e-02  8.158239e-02  8.158144e-02  8.158047e-02  8.157947e-02  8.157846e-02  8.157745e-02  8.157644e-02  8.157545e-02  8.157449e-02  8.157356e-02  8.157267e-02  8.157184e-02  8.157107e-02  8.157037e-02  8.156976e-02  8.156924e-02  8.156882e-02  8.156851e-02  8.156832e-02  8.156825e-02  8.151694e-02  8.151706e-02  8.151739e-02  8.151794e-02  8.151869e-02  8.151963e-02  8.152076e-02  8.152205e-02  8.152350e-02  8.152511e-02  8.152685e-02  8.152872e-02  8.153070e-02  8.153278e-02  8.153496e-02  8.153721e-02  8.153954e-02  8.154192e-02  8.154435e-02  8.154681e-02  8.154929e-02  8.155179e-02  8.155429e-02  8.155678e-02  8.155925e-02  8.156169e-02  8.156410e-02  8.156646e-02  8.156877e-02  8.157101e-02  8.157319e-02  8.157528e-02  8.157729e-02  8.157922e-02  8.158104e-02  8.158276e-02  8.158438e-02  8.158589e-02  8.158728e-02  8.158856e-02  8.158971e-02  8.159075e-02  8.159166e-02  8.159245e-02  8.159311e-02  8.159365e-02  8.159407e-02  8.159437e-02  8.159455e-02  8.159461e-02  8.159455e-02  8.159439e-02  8.159412e-02  8.159375e-02  8.159329e-02  8.159273e-02  8.159209e-02  8.159137e-02  8.159058e-02  8.158973e-02  8.158882e-02  8.158786e-02  8.158687e-02  8.158584e-02  8.158479e-02  8.158373e-02  8.158266e-02  8.158160e-02  8.158056e-02  8.157955e-02  8.157857e-02  8.157764e-02  8.157676e-02  8.157595e-02  8.157522e-02  8.157457e-02  8.157402e-02  8.157358e-02  8.157325e-02  8.157304e-02  8.157297e-02  8.152142e-02  8.152153e-02  8.152188e-02  8.152245e-02  8.152323e-02  8.152421e-02  8.152537e-02  8.152671e-02  8.152821e-02  8.152987e-02  8.153167e-02  8.153360e-02  8.153565e-02  8.153780e-02  8.154004e-02  8.154236e-02  8.154476e-02  8.154721e-02  8.154971e-02  8.155224e-02  8.155479e-02  8.155736e-02  8.155993e-02  8.156248e-02  8.156502e-02  8.156753e-02  8.157000e-02  8.157241e-02  8.157478e-02  8.157707e-02  8.157930e-02  8.158144e-02  8.158350e-02  8.158546e-02  8.158732e-02  8.158908e-02  8.159073e-02  8.159226e-02  8.159367e-02  8.159497e-02  8.159614e-02  8.159719e-02  8.159810e-02  8.159890e-02  8.159956e-02  8.160009e-02  8.160050e-02  8.160079e-02  8.160095e-02  8.160099e-02  8.160091e-02  8.160072e-02  8.160042e-02  8.160002e-02  8.159952e-02  8.159892e-02  8.159824e-02  8.159747e-02  8.159664e-02  8.159574e-02  8.159478e-02  8.159377e-02  8.159272e-02  8.159163e-02  8.159053e-02  8.158941e-02  8.158829e-02  8.158718e-02  8.158609e-02  8.158502e-02  8.158399e-02  8.158301e-02  8.158209e-02  8.158123e-02  8.158046e-02  8.157978e-02  8.157920e-02  8.157873e-02  8.157838e-02  8.157817e-02  8.157809e-02  8.152623e-02  8.152635e-02  8.152671e-02  8.152730e-02  8.152811e-02  8.152912e-02  8.153033e-02  8.153172e-02  8.153327e-02  8.153499e-02  8.153685e-02  8.153884e-02  8.154095e-02  8.154317e-02  8.154549e-02  8.154789e-02  8.155035e-02  8.155288e-02  8.155545e-02  8.155806e-02  8.156068e-02  8.156332e-02  8.156596e-02  8.156859e-02  8.157119e-02  8.157377e-02  8.157630e-02  8.157878e-02  8.158120e-02  8.158356e-02  8.158583e-02  8.158803e-02  8.159013e-02  8.159214e-02  8.159404e-02  8.159583e-02  8.159751e-02  8.159907e-02  8.160051e-02  8.160182e-02  8.160301e-02  8.160407e-02  8.160499e-02  8.160579e-02  8.160645e-02  8.160698e-02  8.160738e-02  8.160765e-02  8.160779e-02  8.160781e-02  8.160771e-02  8.160749e-02  8.160716e-02  8.160672e-02  8.160618e-02  8.160554e-02  8.160481e-02  8.160400e-02  8.160312e-02  8.160216e-02  8.160115e-02  8.160009e-02  8.159898e-02  8.159784e-02  8.159668e-02  8.159551e-02  8.159433e-02  8.159316e-02  8.159201e-02  8.159089e-02  8.158980e-02  8.158877e-02  8.158780e-02  8.158690e-02  8.158609e-02  8.158537e-02  8.158476e-02  8.158426e-02  8.158390e-02  8.158367e-02  8.158359e-02  8.153137e-02  8.153150e-02  8.153187e-02  8.153249e-02  8.153332e-02  8.153437e-02  8.153562e-02  8.153706e-02  8.153867e-02  8.154045e-02  8.154237e-02  8.154443e-02  8.154661e-02  8.154891e-02  8.155129e-02  8.155377e-02  8.155631e-02  8.155891e-02  8.156156e-02  8.156425e-02  8.156695e-02  8.156967e-02  8.157238e-02  8.157508e-02  8.157776e-02  8.158040e-02  8.158300e-02  8.158555e-02  8.158803e-02  8.159044e-02  8.159278e-02  8.159502e-02  8.159717e-02  8.159922e-02  8.160117e-02  8.160300e-02  8.160471e-02  8.160630e-02  8.160776e-02  8.160910e-02  8.161030e-02  8.161137e-02  8.161230e-02  8.161310e-02  8.161376e-02  8.161429e-02  8.161468e-02  8.161493e-02  8.161506e-02  8.161506e-02  8.161493e-02  8.161468e-02  8.161432e-02  8.161384e-02  8.161326e-02  8.161258e-02  8.161180e-02  8.161094e-02  8.161001e-02  8.160900e-02  8.160793e-02  8.160681e-02  8.160565e-02  8.160445e-02  8.160323e-02  8.160199e-02  8.160076e-02  8.159953e-02  8.159832e-02  8.159714e-02  8.159600e-02  8.159491e-02  8.159389e-02  8.159295e-02  8.159209e-02  8.159134e-02  8.159069e-02  8.159017e-02  8.158979e-02  8.158954e-02  8.158946e-02  8.153683e-02  8.153696e-02  8.153735e-02  8.153799e-02  8.153886e-02  8.153995e-02  8.154124e-02  8.154273e-02  8.154440e-02  8.154624e-02  8.154823e-02  8.155035e-02  8.155261e-02  8.155498e-02  8.155744e-02  8.155999e-02  8.156262e-02  8.156530e-02  8.156803e-02  8.157080e-02  8.157358e-02  8.157637e-02  8.157917e-02  8.158194e-02  8.158470e-02  8.158741e-02  8.159008e-02  8.159270e-02  8.159525e-02  8.159772e-02  8.160011e-02  8.160241e-02  8.160461e-02  8.160671e-02  8.160870e-02  8.161057e-02  8.161232e-02  8.161394e-02  8.161543e-02  8.161678e-02  8.161800e-02  8.161908e-02  8.162003e-02  8.162083e-02  8.162149e-02  8.162201e-02  8.162239e-02  8.162263e-02  8.162273e-02  8.162271e-02  8.162255e-02  8.162228e-02  8.162188e-02  8.162136e-02  8.162074e-02  8.162001e-02  8.161919e-02  8.161828e-02  8.161729e-02  8.161623e-02  8.161510e-02  8.161392e-02  8.161270e-02  8.161144e-02  8.161015e-02  8.160886e-02  8.160756e-02  8.160627e-02  8.160499e-02  8.160376e-02  8.160256e-02  8.160142e-02  8.160035e-02  8.159936e-02  8.159846e-02  8.159766e-02  8.159699e-02  8.159644e-02  8.159603e-02  8.159578e-02  8.159569e-02  8.154260e-02  8.154274e-02  8.154314e-02  8.154380e-02  8.154470e-02  8.154583e-02  8.154717e-02  8.154872e-02  8.155044e-02  8.155234e-02  8.155440e-02  8.155660e-02  8.155893e-02  8.156138e-02  8.156392e-02  8.156656e-02  8.156926e-02  8.157203e-02  8.157484e-02  8.157769e-02  8.158056e-02  8.158343e-02  8.158631e-02  8.158916e-02  8.159199e-02  8.159479e-02  8.159753e-02  8.160021e-02  8.160283e-02  8.160537e-02  8.160782e-02  8.161018e-02  8.161243e-02  8.161458e-02  8.161661e-02  8.161852e-02  8.162031e-02  8.162196e-02  8.162348e-02  8.162486e-02  8.162609e-02  8.162719e-02  8.162814e-02  8.162894e-02  8.162960e-02  8.163012e-02  8.163048e-02  8.163071e-02  8.163080e-02  8.163075e-02  8.163057e-02  8.163026e-02  8.162982e-02  8.162927e-02  8.162860e-02  8.162783e-02  8.162696e-02  8.162600e-02  8.162495e-02  8.162383e-02  8.162264e-02  8.162140e-02  8.162011e-02  8.161879e-02  8.161744e-02  8.161608e-02  8.161472e-02  8.161336e-02  8.161203e-02  8.161073e-02  8.160948e-02  8.160828e-02  8.160716e-02  8.160611e-02  8.160517e-02  8.160434e-02  8.160362e-02  8.160305e-02  8.160262e-02  8.160235e-02  8.160226e-02  8.154866e-02  8.154881e-02  8.154923e-02  8.154991e-02  8.155085e-02  8.155202e-02  8.155341e-02  8.155501e-02  8.155679e-02  8.155876e-02  8.156088e-02  8.156316e-02  8.156557e-02  8.156809e-02  8.157072e-02  8.157344e-02  8.157623e-02  8.157908e-02  8.158198e-02  8.158491e-02  8.158787e-02  8.159083e-02  8.159379e-02  8.159673e-02  8.159964e-02  8.160251e-02  8.160533e-02  8.160808e-02  8.161077e-02  8.161337e-02  8.161589e-02  8.161831e-02  8.162062e-02  8.162281e-02  8.162489e-02  8.162685e-02  8.162867e-02  8.163035e-02  8.163190e-02  8.163330e-02  8.163456e-02  8.163567e-02  8.163663e-02  8.163743e-02  8.163809e-02  8.163860e-02 