<?xml version="1.0"?>
<VTKFile type="UnstructuredGrid"  version="0.1"  >
<UnstructuredGrid>
<Piece  NumberOfPoints="3721" NumberOfCells="7200">
<Points>
<DataArray  type="Float32"  NumberOfComponents="3"  format="ascii">0 0 0  0.0166667 0 0  0.0333333 0 0  0.05 0 0  0.0666667 0 0  0.0833333 0 0  0.1 0 0  0.116667 0 0  0.133333 0 0  0.15 0 0  0.166667 0 0  0.183333 0 0  0.2 0 0  0.216667 0 0  0.233333 0 0  0.25 0 0  0.266667 0 0  0.283333 0 0  0.3 0 0  0.316667 0 0  0.333333 0 0  0.35 0 0  0.366667 0 0  0.383333 0 0  0.4 0 0  0.416667 0 0  0.433333 0 0  0.45 0 0  0.466667 0 0  0.483333 0 0  0.5 0 0  0.516667 0 0  0.533333 0 0  0.55 0 0  0.566667 0 0  0.583333 0 0  0.6 0 0  0.616667 0 0  0.633333 0 0  0.65 0 0  0.666667 0 0  0.683333 0 0  0.7 0 0  0.716667 0 0  0.733333 0 0  0.75 0 0  0.766667 0 0  0.783333 0 0  0.8 0 0  0.816667 0 0  0.833333 0 0  0.85 0 0  0.866667 0 0  0.883333 0 0  0.9 0 0  0.916667 0 0  0.933333 0 0  0.95 0 0  0.966667 0 0  0.983333 0 0  1 0 0  0 0.0166667 0  0.0166667 0.0166667 0  0.0333333 0.0166667 0  0.05 0.0166667 0  0.0666667 0.0166667 0  0.0833333 0.0166667 0  0.1 0.0166667 0  0.116667 0.0166667 0  0.133333 0.0166667 0  0.15 0.0166667 0  0.166667 0.0166667 0  0.183333 0.0166667 0  0.2 0.0166667 0  0.216667 0.0166667 0  0.233333 0.0166667 0  0.25 0.0166667 0  0.266667 0.0166667 0  0.283333 0.0166667 0  0.3 0.0166667 0  0.316667 0.0166667 0  0.333333 0.0166667 0  0.35 0.0166667 0  0.366667 0.0166667 0  0.383333 0.0166667 0  0.4 0.0166667 0  0.416667 0.0166667 0  0.433333 0.0166667 0  0.45 0.0166667 0  0.466667 0.0166667 0  0.483333 0.0166667 0  0.5 0.0166667 0  0.516667 0.0166667 0  0.533333 0.0166667 0  0.55 0.0166667 0  0.566667 0.0166667 0  0.583333 0.0166667 0  0.6 0.0166667 0  0.616667 0.0166667 0  0.633333 0.0166667 0  0.65 0.0166667 0  0.666667 0.0166667 0  0.683333 0.0166667 0  0.7 0.0166667 0  0.716667 0.0166667 0  0.733333 0.0166667 0  0.75 0.0166667 0  0.766667 0.0166667 0  0.783333 0.0166667 0  0.8 0.0166667 0  0.816667 0.0166667 0  0.833333 0.0166667 0  0.85 0.0166667 0  0.866667 0.0166667 0  0.883333 0.0166667 0  0.9 0.0166667 0  0.916667 0.0166667 0  0.933333 0.0166667 0  0.95 0.0166667 0  0.966667 0.0166667 0  0.983333 0.0166667 0  1 0.0166667 0  0 0.0333333 0  0.0166667 0.0333333 0  0.0333333 0.0333333 0  0.05 0.0333333 0  0.0666667 0.0333333 0  0.0833333 0.0333333 0  0.1 0.0333333 0  0.116667 0.0333333 0  0.133333 0.0333333 0  0.15 0.0333333 0  0.166667 0.0333333 0  0.183333 0.0333333 0  0.2 0.0333333 0  0.216667 0.0333333 0  0.233333 0.0333333 0  0.25 0.0333333 0  0.266667 0.0333333 0  0.283333 0.0333333 0  0.3 0.0333333 0  0.316667 0.0333333 0  0.333333 0.0333333 0  0.35 0.0333333 0  0.366667 0.0333333 0  0.383333 0.0333333 0  0.4 0.0333333 0  0.416667 0.0333333 0  0.433333 0.0333333 0  0.45 0.0333333 0  0.466667 0.0333333 0  0.483333 0.0333333 0  0.5 0.0333333 0  0.516667 0.0333333 0  0.533333 0.0333333 0  0.55 0.0333333 0  0.566667 0.0333333 0  0.583333 0.0333333 0  0.6 0.0333333 0  0.616667 0.0333333 0  0.633333 0.0333333 0  0.65 0.0333333 0  0.666667 0.0333333 0  0.683333 0.0333333 0  0.7 0.0333333 0  0.716667 0.0333333 0  0.733333 0.0333333 0  0.75 0.0333333 0  0.766667 0.0333333 0  0.783333 0.0333333 0  0.8 0.0333333 0  0.816667 0.0333333 0  0.833333 0.0333333 0  0.85 0.0333333 0  0.866667 0.0333333 0  0.883333 0.0333333 0  0.9 0.0333333 0  0.916667 0.0333333 0  0.933333 0.0333333 0  0.95 0.0333333 0  0.966667 0.0333333 0  0.983333 0.0333333 0  1 0.0333333 0  0 0.05 0  0.0166667 0.05 0  0.0333333 0.05 0  0.05 0.05 0  0.0666667 0.05 0  0.0833333 0.05 0  0.1 0.05 0  0.116667 0.05 0  0.133333 0.05 0  0.15 0.05 0  0.166667 0.05 0  0.183333 0.05 0  0.2 0.05 0  0.216667 0.05 0  0.233333 0.05 0  0.25 0.05 0  0.266667 0.05 0  0.283333 0.05 0  0.3 0.05 0  0.316667 0.05 0  0.333333 0.05 0  0.35 0.05 0  0.366667 0.05 0  0.383333 0.05 0  0.4 0.05 0  0.416667 0.05 0  0.433333 0.05 0  0.45 0.05 0  0.466667 0.05 0  0.483333 0.05 0  0.5 0.05 0  0.516667 0.05 0  0.533333 0.05 0  0.55 0.05 0  0.566667 0.05 0  0.583333 0.05 0  0.6 0.05 0  0.616667 0.05 0  0.633333 0.05 0  0.65 0.05 0  0.666667 0.05 0  0.683333 0.05 0  0.7 0.05 0  0.716667 0.05 0  0.733333 0.05 0  0.75 0.05 0  0.766667 0.05 0  0.783333 0.05 0  0.8 0.05 0  0.816667 0.05 0  0.833333 0.05 0  0.85 0.05 0  0.866667 0.05 0  0.883333 0.05 0  0.9 0.05 0  0.916667 0.05 0  0.933333 0.05 0  0.95 0.05 0  0.966667 0.05 0  0.983333 0.05 0  1 0.05 0  0 0.0666667 0  0.0166667 0.0666667 0  0.0333333 0.0666667 0  0.05 0.0666667 0  0.0666667 0.0666667 0  0.0833333 0.0666667 0  0.1 0.0666667 0  0.116667 0.0666667 0  0.133333 0.0666667 0  0.15 0.0666667 0  0.166667 0.0666667 0  0.183333 0.0666667 0  0.2 0.0666667 0  0.216667 0.0666667 0  0.233333 0.0666667 0  0.25 0.0666667 0  0.266667 0.0666667 0  0.283333 0.0666667 0  0.3 0.0666667 0  0.316667 0.0666667 0  0.333333 0.0666667 0  0.35 0.0666667 0  0.366667 0.0666667 0  0.383333 0.0666667 0  0.4 0.0666667 0  0.416667 0.0666667 0  0.433333 0.0666667 0  0.45 0.0666667 0  0.466667 0.0666667 0  0.483333 0.0666667 0  0.5 0.0666667 0  0.516667 0.0666667 0  0.533333 0.0666667 0  0.55 0.0666667 0  0.566667 0.0666667 0  0.583333 0.0666667 0  0.6 0.0666667 0  0.616667 0.0666667 0  0.633333 0.0666667 0  0.65 0.0666667 0  0.666667 0.0666667 0  0.683333 0.0666667 0  0.7 0.0666667 0  0.716667 0.0666667 0  0.733333 0.0666667 0  0.75 0.0666667 0  0.766667 0.0666667 0  0.783333 0.0666667 0  0.8 0.0666667 0  0.816667 0.0666667 0  0.833333 0.0666667 0  0.85 0.0666667 0  0.866667 0.0666667 0  0.883333 0.0666667 0  0.9 0.0666667 0  0.916667 0.0666667 0  0.933333 0.0666667 0  0.95 0.0666667 0  0.966667 0.0666667 0  0.983333 0.0666667 0  1 0.0666667 0  0 0.0833333 0  0.0166667 0.0833333 0  0.0333333 0.0833333 0  0.05 0.0833333 0  0.0666667 0.0833333 0  0.0833333 0.0833333 0  0.1 0.0833333 0  0.116667 0.0833333 0  0.133333 0.0833333 0  0.15 0.0833333 0  0.166667 0.0833333 0  0.183333 0.0833333 0  0.2 0.0833333 0  0.216667 0.0833333 0  0.233333 0.0833333 0  0.25 0.0833333 0  0.266667 0.0833333 0  0.283333 0.0833333 0  0.3 0.0833333 0  0.316667 0.0833333 0  0.333333 0.0833333 0  0.35 0.0833333 0  0.366667 0.0833333 0  0.383333 0.0833333 0  0.4 0.0833333 0  0.416667 0.0833333 0  0.433333 0.0833333 0  0.45 0.0833333 0  0.466667 0.0833333 0  0.483333 0.0833333 0  0.5 0.0833333 0  0.516667 0.0833333 0  0.533333 0.0833333 0  0.55 0.0833333 0  0.566667 0.0833333 0  0.583333 0.0833333 0  0.6 0.0833333 0  0.616667 0.0833333 0  0.633333 0.0833333 0  0.65 0.0833333 0  0.666667 0.0833333 0  0.683333 0.0833333 0  0.7 0.0833333 0  0.716667 0.0833333 0  0.733333 0.0833333 0  0.75 0.0833333 0  0.766667 0.0833333 0  0.783333 0.0833333 0  0.8 0.0833333 0  0.816667 0.0833333 0  0.833333 0.0833333 0  0.85 0.0833333 0  0.866667 0.0833333 0  0.883333 0.0833333 0  0.9 0.0833333 0  0.916667 0.0833333 0  0.933333 0.0833333 0  0.95 0.0833333 0  0.966667 0.0833333 0  0.983333 0.0833333 0  1 0.0833333 0  0 0.1 0  0.0166667 0.1 0  0.0333333 0.1 0  0.05 0.1 0  0.0666667 0.1 0  0.0833333 0.1 0  0.1 0.1 0  0.116667 0.1 0  0.133333 0.1 0  0.15 0.1 0  0.166667 0.1 0  0.183333 0.1 0  0.2 0.1 0  0.216667 0.1 0  0.233333 0.1 0  0.25 0.1 0  0.266667 0.1 0  0.283333 0.1 0  0.3 0.1 0  0.316667 0.1 0  0.333333 0.1 0  0.35 0.1 0  0.366667 0.1 0  0.383333 0.1 0  0.4 0.1 0  0.416667 0.1 0  0.433333 0.1 0  0.45 0.1 0  0.466667 0.1 0  0.483333 0.1 0  0.5 0.1 0  0.516667 0.1 0  0.533333 0.1 0  0.55 0.1 0  0.566667 0.1 0  0.583333 0.1 0  0.6 0.1 0  0.616667 0.1 0  0.633333 0.1 0  0.65 0.1 0  0.666667 0.1 0  0.683333 0.1 0  0.7 0.1 0  0.716667 0.1 0  0.733333 0.1 0  0.75 0.1 0  0.766667 0.1 0  0.783333 0.1 0  0.8 0.1 0  0.816667 0.1 0  0.833333 0.1 0  0.85 0.1 0  0.866667 0.1 0  0.883333 0.1 0  0.9 0.1 0  0.916667 0.1 0  0.933333 0.1 0  0.95 0.1 0  0.966667 0.1 0  0.983333 0.1 0  1 0.1 0  0 0.116667 0  0.0166667 0.116667 0  0.0333333 0.116667 0  0.05 0.116667 0  0.0666667 0.116667 0  0.0833333 0.116667 0  0.1 0.116667 0  0.116667 0.116667 0  0.133333 0.116667 0  0.15 0.116667 0  0.166667 0.116667 0  0.183333 0.116667 0  0.2 0.116667 0  0.216667 0.116667 0  0.233333 0.116667 0  0.25 0.116667 0  0.266667 0.116667 0  0.283333 0.116667 0  0.3 0.116667 0  0.316667 0.116667 0  0.333333 0.116667 0  0.35 0.116667 0  0.366667 0.116667 0  0.383333 0.116667 0  0.4 0.116667 0  0.416667 0.116667 0  0.433333 0.116667 0  0.45 0.116667 0  0.466667 0.116667 0  0.483333 0.116667 0  0.5 0.116667 0  0.516667 0.116667 0  0.533333 0.116667 0  0.55 0.116667 0  0.566667 0.116667 0  0.583333 0.116667 0  0.6 0.116667 0  0.616667 0.116667 0  0.633333 0.116667 0  0.65 0.116667 0  0.666667 0.116667 0  0.683333 0.116667 0  0.7 0.116667 0  0.716667 0.116667 0  0.733333 0.116667 0  0.75 0.116667 0  0.766667 0.116667 0  0.783333 0.116667 0  0.8 0.116667 0  0.816667 0.116667 0  0.833333 0.116667 0  0.85 0.116667 0  0.866667 0.116667 0  0.883333 0.116667 0  0.9 0.116667 0  0.916667 0.116667 0  0.933333 0.116667 0  0.95 0.116667 0  0.966667 0.116667 0  0.983333 0.116667 0  1 0.116667 0  0 0.133333 0  0.0166667 0.133333 0  0.0333333 0.133333 0  0.05 0.133333 0  0.0666667 0.133333 0  0.0833333 0.133333 0  0.1 0.133333 0  0.116667 0.133333 0  0.133333 0.133333 0  0.15 0.133333 0  0.166667 0.133333 0  0.183333 0.133333 0  0.2 0.133333 0  0.216667 0.133333 0  0.233333 0.133333 0  0.25 0.133333 0  0.266667 0.133333 0  0.283333 0.133333 0  0.3 0.133333 0  0.316667 0.133333 0  0.333333 0.133333 0  0.35 0.133333 0  0.366667 0.133333 0  0.383333 0.133333 0  0.4 0.133333 0  0.416667 0.133333 0  0.433333 0.133333 0  0.45 0.133333 0  0.466667 0.133333 0  0.483333 0.133333 0  0.5 0.133333 0  0.516667 0.133333 0  0.533333 0.133333 0  0.55 0.133333 0  0.566667 0.133333 0  0.583333 0.133333 0  0.6 0.133333 0  0.616667 0.133333 0  0.633333 0.133333 0  0.65 0.133333 0  0.666667 0.133333 0  0.683333 0.133333 0  0.7 0.133333 0  0.716667 0.133333 0  0.733333 0.133333 0  0.75 0.133333 0  0.766667 0.133333 0  0.783333 0.133333 0  0.8 0.133333 0  0.816667 0.133333 0  0.833333 0.133333 0  0.85 0.133333 0  0.866667 0.
[...]
<PointData  Scalars="u"> 
<DataArray  type="Float32"  Name="u"  format="ascii">8.150184e-02  8.150207e-02  8.150255e-02  8.150329e-02  8.150429e-02  8.150554e-02  8.150703e-02  8.150875e-02  8.151066e-02  8.151276e-02  8.151502e-02  8.151742e-02  8.151993e-02  8.152255e-02  8.152524e-02  8.152798e-02  8.153076e-02  8.153355e-02  8.153633e-02  8.153908e-02  8.154178e-02  8.154442e-02  8.154697e-02  8.154943e-02  8.155178e-02  8.155400e-02  8.155609e-02  8.155802e-02  8.155981e-02  8.156142e-02  8.156287e-02  8.156415e-02  8.156525e-02  8.156617e-02  8.156691e-02  8.156747e-02  8.156787e-02  8.156809e-02  8.156815e-02  8.156806e-02  8.156782e-02  8.156745e-02  8.156695e-02  8.156634e-02  8.156563e-02  8.156484e-02  8.156398e-02  8.156307e-02  8.156213e-02  8.156117e-02  8.156021e-02  8.155927e-02  8.155836e-02  8.155751e-02  8.155673e-02  8.155603e-02  8.155544e-02  8.155497e-02  8.155463e-02  8.155445e-02  8.155446e-02  8.150230e-02  8.150247e-02  8.150293e-02  8.150367e-02  8.150468e-02  8.150594e-02  8.150744e-02  8.150916e-02  8.151108e-02  8.151319e-02  8.151546e-02  8.151787e-02  8.152040e-02  8.152302e-02  8.152572e-02  8.152848e-02  8.153126e-02  8.153406e-02  8.153685e-02  8.153961e-02  8.154232e-02  8.154496e-02  8.154753e-02  8.154999e-02  8.155235e-02  8.155457e-02  8.155666e-02  8.155861e-02  8.156039e-02  8.156201e-02  8.156346e-02  8.156474e-02  8.156584e-02  8.156676e-02  8.156750e-02  8.156806e-02  8.156845e-02  8.156867e-02  8.156873e-02  8.156863e-02  8.156839e-02  8.156801e-02  8.156751e-02  8.156689e-02  8.156617e-02  8.156538e-02  8.156451e-02  8.156359e-02  8.156264e-02  8.156167e-02  8.156070e-02  8.155975e-02  8.155884e-02  8.155798e-02  8.155719e-02  8.155648e-02  8.155589e-02  8.155541e-02  8.155506e-02  8.155486e-02  8.155481e-02  8.150344e-02  8.150360e-02  8.150406e-02  8.150481e-02  8.150583e-02  8.150711e-02  8.150864e-02  8.151038e-02  8.151233e-02  8.151447e-02  8.151676e-02  8.151920e-02  8.152176e-02  8.152442e-02  8.152715e-02  8.152993e-02  8.153275e-02  8.153557e-02  8.153839e-02  8.154117e-02  8.154391e-02  8.154658e-02  8.154916e-02  8.155165e-02  8.155402e-02  8.155626e-02  8.155836e-02  8.156032e-02  8.156211e-02  8.156374e-02  8.156520e-02  8.156648e-02  8.156758e-02  8.156850e-02  8.156924e-02  8.156980e-02  8.157018e-02  8.157039e-02  8.157044e-02  8.157033e-02  8.157007e-02  8.156967e-02  8.156915e-02  8.156851e-02  8.156778e-02  8.156696e-02  8.156607e-02  8.156513e-02  8.156415e-02  8.156316e-02  8.156217e-02  8.156119e-02  8.156025e-02  8.155937e-02  8.155855e-02  8.155783e-02  8.155721e-02  8.155672e-02  8.155635e-02  8.155613e-02  8.155606e-02  8.150530e-02  8.150546e-02  8.150593e-02  8.150669e-02  8.150774e-02  8.150905e-02  8.151061e-02  8.151240e-02  8.151439e-02  8.151657e-02  8.151891e-02  8.152140e-02  8.152400e-02  8.152671e-02  8.152948e-02  8.153231e-02  8.153518e-02  8.153805e-02  8.154090e-02  8.154373e-02  8.154650e-02  8.154921e-02  8.155183e-02  8.155435e-02  8.155675e-02  8.155902e-02  8.156114e-02  8.156312e-02  8.156493e-02  8.156657e-02  8.156804e-02  8.156932e-02  8.157042e-02  8.157134e-02  8.157207e-02  8.157263e-02  8.157300e-02  8.157319e-02  8.157322e-02  8.157309e-02  8.157281e-02  8.157239e-02  8.157184e-02  8.157117e-02  8.157040e-02  8.156955e-02  8.156862e-02  8.156765e-02  8.156663e-02  8.156560e-02  8.156457e-02  8.156355e-02  8.156257e-02  8.156165e-02  8.156080e-02  8.156005e-02  8.155940e-02  8.155888e-02  8.155849e-02  8.155825e-02  8.155817e-02  8.150787e-02  8.150803e-02  8.150852e-02  8.150931e-02  8.151039e-02  8.151174e-02  8.151334e-02  8.151518e-02  8.151723e-02  8.151947e-02  8.152187e-02  8.152442e-02  8.152709e-02  8.152986e-02  8.153270e-02  8.153559e-02  8.153851e-02  8.154144e-02  8.154436e-02  8.154724e-02  8.155007e-02  8.155282e-02  8.155549e-02  8.155805e-02  8.156049e-02  8.156279e-02  8.156495e-02  8.156695e-02  8.156878e-02  8.157044e-02  8.157192e-02  8.157322e-02  8.157432e-02  8.157524e-02  8.157597e-02  8.157651e-02  8.157686e-02  8.157704e-02  8.157705e-02  8.157689e-02  8.157658e-02  8.157612e-02  8.157553e-02  8.157482e-02  8.157401e-02  8.157311e-02  8.157214e-02  8.157111e-02  8.157004e-02  8.156896e-02  8.156787e-02  8.156681e-02  8.156578e-02  8.156481e-02  8.156391e-02  8.156312e-02  8.156243e-02  8.156187e-02  8.156146e-02  8.156120e-02  8.156111e-02  8.151113e-02  8.151130e-02  8.151181e-02  8.151263e-02  8.151375e-02  8.151515e-02  8.151681e-02  8.151871e-02  8.152083e-02  8.152314e-02  8.152562e-02  8.152825e-02  8.153099e-02  8.153384e-02  8.153676e-02  8.153973e-02  8.154273e-02  8.154573e-02  8.154872e-02  8.155167e-02  8.155456e-02  8.155738e-02  8.156010e-02  8.156271e-02  8.156520e-02  8.156755e-02  8.156974e-02  8.157178e-02  8.157364e-02  8.157532e-02  8.157681e-02  8.157812e-02  8.157923e-02  8.158014e-02  8.158086e-02  8.158139e-02  8.158173e-02  8.158188e-02  8.158186e-02  8.158167e-02  8.158132e-02  8.158082e-02  8.158018e-02  8.157942e-02  8.157856e-02  8.157760e-02  8.157657e-02  8.157548e-02  8.157435e-02  8.157320e-02  8.157205e-02  8.157093e-02  8.156984e-02  8.156881e-02  8.156786e-02  8.156701e-02  8.156628e-02  8.156568e-02  8.156523e-02  8.156495e-02  8.156486e-02  8.151508e-02  8.151526e-02  8.151579e-02  8.151665e-02  8.151782e-02  8.151928e-02  8.152100e-02  8.152298e-02  8.152517e-02  8.152756e-02  8.153013e-02  8.153285e-02  8.153568e-02  8.153862e-02  8.154163e-02  8.154469e-02  8.154778e-02  8.155087e-02  8.155394e-02  8.155697e-02  8.155994e-02  8.156283e-02  8.156562e-02  8.156830e-02  8.157084e-02  8.157324e-02  8.157548e-02  8.157755e-02  8.157944e-02  8.158115e-02  8.158266e-02  8.158398e-02  8.158509e-02  8.158601e-02  8.158672e-02  8.158723e-02  8.158755e-02  8.158768e-02  8.158762e-02  8.158739e-02  8.158699e-02  8.158644e-02  8.158575e-02  8.158494e-02  8.158401e-02  8.158299e-02  8.158188e-02  8.158072e-02  8.157952e-02  8.157830e-02  8.157708e-02  8.157588e-02  8.157472e-02  8.157362e-02  8.157261e-02  8.157170e-02  8.157092e-02  8.157027e-02  8.156980e-02  8.156950e-02  8.156939e-02  8.151969e-02  8.151988e-02  8.152044e-02  8.152134e-02  8.152256e-02  8.152408e-02  8.152589e-02  8.152794e-02  8.153023e-02  8.153271e-02  8.153538e-02  8.153819e-02  8.154113e-02  8.154417e-02  8.154729e-02  8.155045e-02  8.155364e-02  8.155683e-02  8.155999e-02  8.156312e-02  8.156617e-02  8.156914e-02  8.157201e-02  8.157475e-02  8.157736e-02  8.157982e-02  8.158211e-02  8.158423e-02  8.158616e-02  8.158789e-02  8.158943e-02  8.159076e-02  8.159188e-02  8.159279e-02  8.159349e-02  8.159399e-02  8.159429e-02  8.159438e-02  8.159429e-02  8.159401e-02  8.159357e-02  8.159296e-02  8.159221e-02  8.159132e-02  8.159032e-02  8.158923e-02  8.158805e-02  8.158681e-02  8.158553e-02  8.158422e-02  8.158292e-02  8.158164e-02  8.158040e-02  8.157923e-02  8.157814e-02  8.157717e-02  8.157633e-02  8.157564e-02  8.157512e-02  8.157480e-02  8.157468e-02  8.152496e-02  8.152515e-02  8.152574e-02  8.152668e-02  8.152796e-02  8.152956e-02  8.153144e-02  8.153359e-02  8.153597e-02  8.153856e-02  8.154133e-02  8.154426e-02  8.154731e-02  8.155046e-02  8.155369e-02  8.155697e-02  8.156027e-02  8.156356e-02  8.156684e-02  8.157006e-02  8.157321e-02  8.157627e-02  8.157923e-02  8.158205e-02  8.158473e-02  8.158725e-02  8.158960e-02  8.159176e-02  8.159373e-02  8.159550e-02  8.159706e-02  8.159841e-02  8.159954e-02  8.160045e-02  8.160114e-02  8.160162e-02  8.160189e-02  8.160195e-02  8.160182e-02  8.160149e-02  8.160099e-02  8.160032e-02  8.159950e-02  8.159854e-02  8.159747e-02  8.159629e-02  8.159502e-02  8.159370e-02  8.159232e-02  8.159093e-02  8.158954e-02  8.158817e-02  8.158684e-02  8.158559e-02  8.158443e-02  8.158338e-02  8.158248e-02  8.158174e-02  8.158118e-02  8.158083e-02  8.158071e-02  8.153084e-02  8.153105e-02  8.153166e-02  8.153266e-02  8.153400e-02  8.153567e-02  8.153764e-02  8.153988e-02  8.154237e-02  8.154507e-02  8.154796e-02  8.155101e-02  8.155418e-02  8.155746e-02  8.156081e-02  8.156421e-02  8.156763e-02  8.157105e-02  8.157443e-02  8.157777e-02  8.158103e-02  8.158419e-02  8.158723e-02  8.159014e-02  8.159290e-02  8.159549e-02  8.159790e-02  8.160012e-02  8.160214e-02  8.160394e-02  8.160553e-02  8.160689e-02  8.160803e-02  8.160894e-02  8.160962e-02  8.161008e-02  8.161032e-02  8.161035e-02  8.161017e-02  8.160979e-02  8.160923e-02  8.160849e-02  8.160760e-02  8.160656e-02  8.160540e-02  8.160413e-02  8.160277e-02  8.160135e-02  8.159988e-02  8.159839e-02  8.159690e-02  8.159544e-02  8.159402e-02  8.159268e-02  8.159144e-02  8.159032e-02  8.158935e-02  8.158855e-02  8.158795e-02  8.158757e-02  8.158744e-02  8.153733e-02  8.153755e-02  8.153820e-02  8.153924e-02  8.154065e-02  8.154240e-02  8.154446e-02  8.154681e-02  8.154941e-02  8.155223e-02  8.155524e-02  8.155842e-02  8.156172e-02  8.156513e-02  8.156862e-02  8.157215e-02  8.157570e-02  8.157924e-02  8.158275e-02  8.158620e-02  8.158957e-02  8.159284e-02  8.159599e-02  8.159899e-02  8.160183e-02  8.160450e-02  8.160698e-02  8.160925e-02  8.161132e-02  8.161316e-02  8.161478e-02  8.161616e-02  8.161731e-02  8.161821e-02  8.161889e-02  8.161933e-02  8.161954e-02  8.161952e-02  8.161929e-02  8.161886e-02  8.161823e-02  8.161743e-02  8.161646e-02  8.161533e-02  8.161408e-02  8.161272e-02  8.161127e-02  8.160974e-02  8.160817e-02  8.160658e-02  8.160498e-02  8.160342e-02  8.160190e-02  8.160047e-02  8.159914e-02  8.159794e-02  8.159690e-02  8.159604e-02  8.159540e-02  8.159500e-02  8.159485e-02  8.154440e-02  8.154463e-02  8.154531e-02  8.154640e-02  8.154788e-02  8.154972e-02  8.155188e-02  8.155434e-02  8.155705e-02  8.156000e-02  8.156314e-02  8.156645e-02  8.156990e-02  8.157345e-02  8.157708e-02  8.158075e-02  8.158444e-02  8.158811e-02  8.159175e-02  8.159533e-02  8.159882e-02  8.160220e-02  8.160545e-02  8.160855e-02  8.161149e-02  8.161424e-02  8.161679e-02  8.161912e-02  8.162124e-02  8.162312e-02  8.162477e-02  8.162617e-02  8.162733e-02  8.162824e-02  8.162890e-02  8.162932e-02  8.162950e-02  8.162944e-02  8.162916e-02  8.162867e-02  8.162798e-02  8.162709e-02  8.162604e-02  8.162483e-02  8.162348e-02  8.162202e-02  8.162046e-02  8.161883e-02  8.161715e-02  8.161545e-02  8.161374e-02  8.161207e-02  8.161045e-02  8.160892e-02  8.160750e-02  8.160622e-02  8.160511e-02  8.160419e-02  8.160350e-02  8.160307e-02  8.160292e-02  8.155202e-02  8.155227e-02  8.155298e-02  8.155413e-02  8.155568e-02  8.155761e-02  8.155987e-02  8.156244e-02  8.156528e-02  8.156835e-02  8.157164e-02  8.157509e-02  8.157868e-02  8.158238e-02  8.158615e-02  8.158997e-02  8.159380e-02  8.159762e-02  8.160140e-02  8.160511e-02  8.160873e-02  8.161223e-02  8.161559e-02  8.161880e-02  8.162183e-02  8.162466e-02  8.162729e-02  8.162969e-02  8.163186e-02  8.163379e-02  8.163547e-02  8.163689e-02  8.163806e-02  8.163897e-02  8.163962e-02  8.164002e-02  8.164016e-02  8.164006e-02  8.163973e-02  8.163918e-02  8.163841e-02  8.163745e-02  8.163631e-02  8.163500e-02  8.163356e-02  8.163199e-02  8.163032e-02  8.162858e-02  8.162679e-02  8.162497e-02  8.162315e-02  8.162137e-02  8.161965e-02  8.161801e-02  8.161649e-02  8.161513e-02  8.161394e-02  8.161296e-02  8.161223e-02  8.161176e-02  8.161160e-02  8.156018e-02  8.156043e-02  8.156118e-02  8.156239e-02  8.156401e-02  8.156603e-02  8.156840e-02  8.157108e-02  8.157405e-02  8.157727e-02  8.158069e-02  8.158429e-02  8.158804e-02  8.159189e-02  8.159582e-02  8.159979e-02  8.160377e-02  8.160774e-02  8.161166e-02  8.161551e-02  8.161926e-02  8.162289e-02  8.162637e-02  8.162968e-02  8.163281e-02  8.163574e-02  8.163844e-02  8.164091e-02  8.164314e-02  8.164512e-02  8.164683e-02  8.164828e-02  8.164946e-02  8.165037e-02  8.165101e-02  8.165138e-02  8.165149e-02  8.165135e-02  8.165096e-02  8.165034e-02  8.164950e-02  8.164846e-02  8.164722e-02  8.164582e-02  8.164427e-02  8.164260e-02  8.164081e-02  8.163896e-02  8.163705e-02  8.163511e-02  8.163318e-02  8.163128e-02  8.162944e-02  8.162770e-02  8.162609e-02  8.162463e-02  8.162337e-02  8.162233e-02  8.162154e-02  8.162105e-02  8.162087e-02  8.156883e-02  8.156910e-02  8.156988e-02  8.157115e-02  8.157285e-02  8.157496e-02  8.157744e-02  8.158025e-02  8.158335e-02  8.158670e-02  8.159028e-02  8.159403e-02  8.159793e-02  8.160195e-02  8.160603e-02  8.161017e-02  8.161431e-02  8.161843e-02  8.162250e-02  8.162650e-02  8.163038e-02  8.163414e-02  8.163774e-02  8.164117e-02  8.164440e-02  8.164742e-02  8.165021e-02  8.165275e-02  8.165504e-02  8.165707e-02  8.165882e-02  8.166029e-02  8.166148e-02  8.166239e-02  8.166302e-02  8.166337e-02  8.166344e-02  8.166325e-02  8.166281e-02  8.166212e-02  8.166121e-02  8.166008e-02  8.165875e-02  8.165725e-02  8.165559e-02  8.165380e-02  8.165190e-02  8.164993e-02  8.164789e-02  8.164584e-02  8.164378e-02  8.164177e-02  8.163982e-02  8.163797e-02  8.163625e-02  8.163470e-02  8.163336e-02  8.163225e-02  8.163142e-02  8.163089e-02  8.163071e-02  8.157796e-02  8.157824e-02  8.157907e-02  8.158039e-02  8.158217e-02  8.158438e-02  8.158697e-02  8.158990e-02  8.159314e-02  8.159664e-02  8.160037e-02  8.160428e-02  8.160834e-02  8.161252e-02  8.161677e-02  8.162107e-02  8.162538e-02  8.162966e-02  8.163388e-02  8.163803e-02  8.164206e-02  8.164595e-02  8.164968e-02  8.165322e-02  8.165656e-02  8.165968e-02  8.166255e-02  8.166517e-02  8.166752e-02  8.166960e-02  8.167139e-02  8.167288e-02  8.167409e-02  8.167500e-02  8.167561e-02  8.167594e-02  8.167598e-02  8.167574e-02  8.167524e-02  8.167449e-02  8.167349e-02  8.167227e-02  8.167085e-02  8.166925e-02  8.166748e-02  8.166557e-02  8.166355e-02  8.166145e-02  8.165930e-02  8.165711e-02  8.165494e-02  8.165280e-02  8.165073e-02  8.164877e-02  8.164695e-02  8.164531e-02  8.164388e-02  8.164271e-02  8.164182e-02  8.164126e-02  8.164107e-02  8.158754e-02  8.158783e-02  8.158870e-02  8.159008e-02  8.159194e-02  8.159425e-02  8.159696e-02  8.160002e-02  8.160339e-02  8.160704e-02  8.161092e-02  8.161500e-02  8.161923e-02  8.162358e-02  8.162800e-02  8.163247e-02  8.163694e-02  8.164139e-02  8.164577e-02  8.165007e-02  8.165425e-02  8.165828e-02  8.166214e-02  8.166581e-02  8.166926e-02  8.167247e-02  8.167543e-02  8.167813e-02  8.168055e-02  8.168267e-02  8.168450e-02  8.168603e-02  8.168725e-02  8.168816e-02  8.168876e-02  8.168906e-02  8.168906e-02  8.168878e-02  8.168822e-02  8.168739e-02  8.168632e-02  8.168501e-02  8.168349e-02  8.168177e-02  8.167989e-02  8.167787e-02  8.167573e-02  8.167350e-02  8.167122e-02  8.166890e-02  8.166660e-02  8.166434e-02  8.166215e-02  8.166008e-02  8.165815e-02  8.165642e-02  8.165491e-02  8.165366e-02  8.165273e-02  8.165213e-02  8.165193e-02  8.159754e-02  8.159785e-02  8.159875e-02  8.160019e-02  8.160214e-02  8.160455e-02  8.160737e-02  8.161056e-02  8.161408e-02  8.161788e-02  8.162192e-02  8.162617e-02  8.163057e-02  8.163509e-02  8.163969e-02  8.164433e-02  8.164897e-02  8.165358e-02  8.165813e-02  8.166259e-02  8.166692e-02  8.167109e-02  8.167509e-02  8.167888e-02  8.168244e-02  8.168576e-02  8.168882e-02  8.169159e-02  8.169407e-02  8.169625e-02  8.169812e-02  8.169968e-02  8.170091e-02  8.170182e-02  8.170241e-02  8.170269e-02  8.170266e-02  8.170232e-02  8.170170e-02  8.170080e-02  8.169964e-02  8.169824e-02  8.169662e-02  8.169480e-02  8.169280e-02  8.169066e-02  8.168839e-02  8.168604e-02  8.168362e-02  8.168118e-02  8.167874e-02  8.167635e-02  8.167404e-02  8.167186e-02  8.166982e-02  8.166799e-02  8.166640e-02  8.166509e-02  8.166410e-02  8.166347e-02  8.166325e-02  8.160792e-02  8.160825e-02  8.160919e-02  8.161070e-02  8.161273e-02  8.161524e-02  8.161818e-02  8.162150e-02  8.162517e-02  8.162913e-02  8.163333e-02  8.163775e-02  8.164232e-02  8.164702e-02  8.165179e-02  8.165661e-02  8.166143e-02  8.166622e-02  8.167093e-02  8.167555e-02  8.168003e-02  8.168435e-02  8.168849e-02  8.169240e-02  8.169609e-02  8.169951e-02  8.170266e-02  8.170552e-02  8.170807e-02  8.171030e-02  8.171222e-02  8.171380e-02  8.171504e-02  8.171596e-02  8.171654e-02  8.171679e-02  8.171672e-02  8.171633e-02  8.171565e-02  8.171468e-02  8.171344e-02  8.171194e-02  8.171022e-02  8.170829e-02  8.170617e-02  8.170390e-02  8.170151e-02  8.169902e-02  8.169647e-02  8.169390e-02  8.169133e-02  8.168881e-02  8.168638e-02  8.168407e-02  8.168193e-02  8.168000e-02  8.167832e-02  8.167694e-02  8.167590e-02  8.167524e-02  8.167501e-02  8.161867e-02  8.161901e-02  8.161999e-02  8.162156e-02  8.162368e-02  8.162629e-02  8.162936e-02  8.163282e-02  8.163663e-02  8.164074e-02  8.164512e-02  8.164970e-02  8.165446e-02  8.165933e-02  8.166429e-02  8.166929e-02  8.167429e-02  8.167925e-02  8.168414e-02  8.168892e-02  8.169356e-02  8.169803e-02  8.170230e-02  8.170635e-02  8.171015e-02  8.171368e-02  8.171693e-02  8.171987e-02  8.172249e-02  8.172478e-02  8.172674e-02  8.172835e-02  8.172961e-02  8.173053e-02  8.173109e-02  8.173132e-02  8.173121e-02  8.173078e-02  8.173003e-02  8.172898e-02  8.172766e-02  8.172607e-02  8.172424e-02  8.172220e-02  8.171996e-02  8.171757e-02  8.171505e-02  8.171242e-02  8.170974e-02  8.170703e-02  8.170433e-02  8.170168e-02  8.169912e-02  8.169670e-02  8.169444e-02  8.169241e-02  8.169065e-02  8.168919e-02  8.168810e-02  8.168740e-02  8.168716e-02  8.162976e-02  8.163011e-02  8.163113e-02  8.163276e-02  8.163497e-02  8.163769e-02  8.164087e-02  8.164447e-02  8.164843e-02  8.165271e-02  8.165725e-02  8.166201e-02  8.166694e-02  8.167200e-02  8.167714e-02  8.168233e-02  8.168751e-02  8.169265e-02  8.169771e-02  8.170265e-02  8.170746e-02  8.171208e-02  8.171650e-02  8.172068e-02  8.172460e-02  8.172824e-02  8.173158e-02  8.173461e-02  8.173730e-02  8.173965e-02  8.174165e-02  8.174329e-02  8.174457e-02  8.174549e-02  8.174605e-02  8.174625e-02  8.174610e-02  8.174562e-02  8.174480e-02  8.174368e-02  8.174227e-02  8.174058e-02  8.173865e-02  8.173649e-02  8.173414e-02  8.173162e-02  8.172896e-02  8.172621e-02  8.172339e-02  8.172054e-02  8.171770e-02  8.171492e-02  8.171223e-02  8.170969e-02  8.170733e-02  8.170520e-02  8.170334e-02  8.170182e-02  8.170067e-02  8.169994e-02  8.169968e-02  8.164114e-02  8.164151e-02  8.164257e-02  8.164427e-02  8.164656e-02  8.164939e-02  8.165269e-02  8.165643e-02  8.166054e-02  8.166498e-02  8.166970e-02  8.167464e-02  8.167975e-02  8.168499e-02  8.169032e-02  8.169569e-02  8.170105e-02  8.170637e-02  8.171161e-02  8.171673e-02  8.172170e-02  8.172647e-02  8.173103e-02  8.173535e-02  8.173940e-02  8.174315e-02  8.174659e-02  8.174970e-02  8.175247e-02  8.175488e-02  8.175692e-02  8.175860e-02  8.175989e-02  8.176081e-02  8.176136e-02  8.176153e-02  8.176135e-02  8.176081e-02  8.175993e-02  8.175874e-02  8.175724e-02  8.175545e-02  8.175341e-02  8.175114e-02  8.174866e-02  8.174601e-02  8.174323e-02  8.174033e-02  8.173737e-02  8.173439e-02  8.173142e-02  8.172850e-02  8.172569e-02  8.172302e-02  8.172054e-02  8.171831e-02  8.171637e-02  8.171477e-02  8.171357e-02  8.171280e-02  8.171254e-02  8.165280e-02  8.165318e-02  8.165428e-02  8.165605e-02  8.165843e-02  8.166136e-02  8.166479e-02  8.166867e-02  8.167294e-02  8.167754e-02  8.168243e-02  8.168754e-02  8.169284e-02  8.169828e-02  8.170379e-02  8.170935e-02  8.171490e-02  8.172040e-02  8.172582e-02  8.173111e-02  8.173624e-02  8.174117e-02  8.174588e-02  8.175033e-02  8.175450e-02  8.175837e-02  8.176191e-02  8.176511e-02  8.176795e-02  8.177042e-02  8.177251e-02  8.177422e-02  8.177553e-02  8.177645e-02  8.177699e-02  8.177714e-02  8.177691e-02  8.177632e-02  8.177538e-02  8.177411e-02  8.177252e-02  8.177064e-02  8.176849e-02  8.176610e-02  8.176350e-02  8.176072e-02  8.175780e-02  8.175477e-02  8.175167e-02  8.174855e-02  8.174544e-02  8.174239e-02  8.173944e-02  8.173665e-02  8.173407e-02  8.173173e-02  8.172970e-02  8.172803e-02  8.172677e-02  8.172597e-02  8.172569e-02  8.166470e-02  8.166509e-02  8.166624e-02  8.166807e-02  8.167054e-02  8.167358e-02  8.167714e-02  8.168116e-02  8.168558e-02  8.169035e-02  8.169541e-02  8.170071e-02  8.170619e-02  8.171181e-02  8.171752e-02  8.172327e-02  8.172901e-02  8.173469e-02  8.174029e-02  8.174576e-02 