<?xml version="1.0"?>
<VTKFile type="UnstructuredGrid"  version="0.1"  >
<UnstructuredGrid>
<Piece  NumberOfPoints="3721" NumberOfCells="7200">
<Points>
<DataArray  type="Float32"  NumberOfComponents="3"  format="ascii">0 0 0  0.0166667 0 0  0.0333333 0 0  0.05 0 0  0.0666667 0 0  0.0833333 0 0  0.1 0 0  0.116667 0 0  0.133333 0 0  0.15 0 0  0.166667 0 0  0.183333 0 0  0.2 0 0  0.216667 0 0  0.233333 0 0  0.25 0 0  0.266667 0 0  0.283333 0 0  0.3 0 0  0.316667 0 0  0.333333 0 0  0.35 0 0  0.366667 0 0  0.383333 0 0  0.4 0 0  0.416667 0 0  0.433333 0 0  0.45 0 0  0.466667 0 0  0.483333 0 0  0.5 0 0  0.516667 0 0  0.533333 0 0  0.55 0 0  0.566667 0 0  0.583333 0 0  0.6 0 0  0.616667 0 0  0.633333 0 0  0.65 0 0  0.666667 0 0  0.683333 0 0  0.7 0 0  0.716667 0 0  0.733333 0 0  0.75 0 0  0.766667 0 0  0.783333 0 0  0.8 0 0  0.816667 0 0  0.833333 0 0  0.85 0 0  0.866667 0 0  0.883333 0 0  0.9 0 0  0.916667 0 0  0.933333 0 0  0.95 0 0  0.966667 0 0  0.983333 0 0  1 0 0  0 0.0166667 0  0.0166667 0.0166667 0  0.0333333 0.0166667 0  0.05 0.0166667 0  0.0666667 0.0166667 0  0.0833333 0.0166667 0  0.1 0.0166667 0  0.116667 0.0166667 0  0.133333 0.0166667 0  0.15 0.0166667 0  0.166667 0.0166667 0  0.183333 0.0166667 0  0.2 0.0166667 0  0.216667 0.0166667 0  0.233333 0.0166667 0  0.25 0.0166667 0  0.266667 0.0166667 0  0.283333 0.0166667 0  0.3 0.0166667 0  0.316667 0.0166667 0  0.333333 0.0166667 0  0.35 0.0166667 0  0.366667 0.0166667 0  0.383333 0.0166667 0  0.4 0.0166667 0  0.416667 0.0166667 0  0.433333 0.0166667 0  0.45 0.0166667 0  0.466667 0.0166667 0  0.483333 0.0166667 0  0.5 0.0166667 0  0.516667 0.0166667 0  0.533333 0.0166667 0  0.55 0.0166667 0  0.566667 0.0166667 0  0.583333 0.0166667 0  0.6 0.0166667 0  0.616667 0.0166667 0  0.633333 0.0166667 0  0.65 0.0166667 0  0.666667 0.0166667 0  0.683333 0.0166667 0  0.7 0.0166667 0  0.716667 0.0166667 0  0.733333 0.0166667 0  0.75 0.0166667 0  0.766667 0.0166667 0  0.783333 0.0166667 0  0.8 0.0166667 0  0.816667 0.0166667 0  0.833333 0.0166667 0  0.85 0.0166667 0  0.866667 0.0166667 0  0.883333 0.0166667 0  0.9 0.0166667 0  0.916667 0.0166667 0  0.933333 0.0166667 0  0.95 0.0166667 0  0.966667 0.0166667 0  0.983333 0.0166667 0  1 0.0166667 0  0 0.0333333 0  0.0166667 0.0333333 0  0.0333333 0.0333333 0  0.05 0.0333333 0  0.0666667 0.0333333 0  0.0833333 0.0333333 0  0.1 0.0333333 0  0.116667 0.0333333 0  0.133333 0.0333333 0  0.15 0.0333333 0  0.166667 0.0333333 0  0.183333 0.0333333 0  0.2 0.0333333 0  0.216667 0.0333333 0  0.233333 0.0333333 0  0.25 0.0333333 0  0.266667 0.0333333 0  0.283333 0.0333333 0  0.3 0.0333333 0  0.316667 0.0333333 0  0.333333 0.0333333 0  0.35 0.0333333 0  0.366667 0.0333333 0  0.383333 0.0333333 0  0.4 0.0333333 0  0.416667 0.0333333 0  0.433333 0.0333333 0  0.45 0.0333333 0  0.466667 0.0333333 0  0.483333 0.0333333 0  0.5 0.0333333 0  0.516667 0.0333333 0  0.533333 0.0333333 0  0.55 0.0333333 0  0.566667 0.0333333 0  0.583333 0.0333333 0  0.6 0.0333333 0  0.616667 0.0333333 0  0.633333 0.0333333 0  0.65 0.0333333 0  0.666667 0.0333333 0  0.683333 0.0333333 0  0.7 0.0333333 0  0.716667 0.0333333 0  0.733333 0.0333333 0  0.75 0.0333333 0  0.766667 0.0333333 0  0.783333 0.0333333 0  0.8 0.0333333 0  0.816667 0.0333333 0  0.833333 0.0333333 0  0.85 0.0333333 0  0.866667 0.0333333 0  0.883333 0.0333333 0  0.9 0.0333333 0  0.916667 0.0333333 0  0.933333 0.0333333 0  0.95 0.0333333 0  0.966667 0.0333333 0  0.983333 0.0333333 0  1 0.0333333 0  0 0.05 0  0.0166667 0.05 0  0.0333333 0.05 0  0.05 0.05 0  0.0666667 0.05 0  0.0833333 0.05 0  0.1 0.05 0  0.116667 0.05 0  0.133333 0.05 0  0.15 0.05 0  0.166667 0.05 0  0.183333 0.05 0  0.2 0.05 0  0.216667 0.05 0  0.233333 0.05 0  0.25 0.05 0  0.266667 0.05 0  0.283333 0.05 0  0.3 0.05 0  0.316667 0.05 0  0.333333 0.05 0  0.35 0.05 0  0.366667 0.05 0  0.383333 0.05 0  0.4 0.05 0  0.416667 0.05 0  0.433333 0.05 0  0.45 0.05 0  0.466667 0.05 0  0.483333 0.05 0  0.5 0.05 0  0.516667 0.05 0  0.533333 0.05 0  0.55 0.05 0  0.566667 0.05 0  0.583333 0.05 0  0.6 0.05 0  0.616667 0.05 0  0.633333 0.05 0  0.65 0.05 0  0.666667 0.05 0  0.683333 0.05 0  0.7 0.05 0  0.716667 0.05 0  0.733333 0.05 0  0.75 0.05 0  0.766667 0.05 0  0.783333 0.05 0  0.8 0.05 0  0.816667 0.05 0  0.833333 0.05 0  0.85 0.05 0  0.866667 0.05 0  0.883333 0.05 0  0.9 0.05 0  0.916667 0.05 0  0.933333 0.05 0  0.95 0.05 0  0.966667 0.05 0  0.983333 0.05 0  1 0.05 0  0 0.0666667 0  0.0166667 0.0666667 0  0.0333333 0.0666667 0  0.05 0.0666667 0  0.0666667 0.0666667 0  0.0833333 0.0666667 0  0.1 0.0666667 0  0.116667 0.0666667 0  0.133333 0.0666667 0  0.15 0.0666667 0  0.166667 0.0666667 0  0.183333 0.0666667 0  0.2 0.0666667 0  0.216667 0.0666667 0  0.233333 0.0666667 0  0.25 0.0666667 0  0.266667 0.0666667 0  0.283333 0.0666667 0  0.3 0.0666667 0  0.316667 0.0666667 0  0.333333 0.0666667 0  0.35 0.0666667 0  0.366667 0.0666667 0  0.383333 0.0666667 0  0.4 0.0666667 0  0.416667 0.0666667 0  0.433333 0.0666667 0  0.45 0.0666667 0  0.466667 0.0666667 0  0.483333 0.0666667 0  0.5 0.0666667 0  0.516667 0.0666667 0  0.533333 0.0666667 0  0.55 0.0666667 0  0.566667 0.0666667 0  0.583333 0.0666667 0  0.6 0.0666667 0  0.616667 0.0666667 0  0.633333 0.0666667 0  0.65 0.0666667 0  0.666667 0.0666667 0  0.683333 0.0666667 0  0.7 0.0666667 0  0.716667 0.0666667 0  0.733333 0.0666667 0  0.75 0.0666667 0  0.766667 0.0666667 0  0.783333 0.0666667 0  0.8 0.0666667 0  0.816667 0.0666667 0  0.833333 0.0666667 0  0.85 0.0666667 0  0.866667 0.0666667 0  0.883333 0.0666667 0  0.9 0.0666667 0  0.916667 0.0666667 0  0.933333 0.0666667 0  0.95 0.0666667 0  0.966667 0.0666667 0  0.983333 0.0666667 0  1 0.0666667 0  0 0.0833333 0  0.0166667 0.0833333 0  0.0333333 0.0833333 0  0.05 0.0833333 0  0.0666667 0.0833333 0  0.0833333 0.0833333 0  0.1 0.0833333 0  0.116667 0.0833333 0  0.133333 0.0833333 0  0.15 0.0833333 0  0.166667 0.0833333 0  0.183333 0.0833333 0  0.2 0.0833333 0  0.216667 0.0833333 0  0.233333 0.0833333 0  0.25 0.0833333 0  0.266667 0.0833333 0  0.283333 0.0833333 0  0.3 0.0833333 0  0.316667 0.0833333 0  0.333333 0.0833333 0  0.35 0.0833333 0  0.366667 0.0833333 0  0.383333 0.0833333 0  0.4 0.0833333 0  0.416667 0.0833333 0  0.433333 0.0833333 0  0.45 0.0833333 0  0.466667 0.0833333 0  0.483333 0.0833333 0  0.5 0.0833333 0  0.516667 0.0833333 0  0.533333 0.0833333 0  0.55 0.0833333 0  0.566667 0.0833333 0  0.583333 0.0833333 0  0.6 0.0833333 0  0.616667 0.0833333 0  0.633333 0.0833333 0  0.65 0.0833333 0  0.666667 0.0833333 0  0.683333 0.0833333 0  0.7 0.0833333 0  0.716667 0.0833333 0  0.733333 0.0833333 0  0.75 0.0833333 0  0.766667 0.0833333 0  0.783333 0.0833333 0  0.8 0.0833333 0  0.816667 0.0833333 0  0.833333 0.0833333 0  0.85 0.0833333 0  0.866667 0.0833333 0  0.883333 0.0833333 0  0.9 0.0833333 0  0.916667 0.0833333 0  0.933333 0.0833333 0  0.95 0.0833333 0  0.966667 0.0833333 0  0.983333 0.0833333 0  1 0.0833333 0  0 0.1 0  0.0166667 0.1 0  0.0333333 0.1 0  0.05 0.1 0  0.0666667 0.1 0  0.0833333 0.1 0  0.1 0.1 0  0.116667 0.1 0  0.133333 0.1 0  0.15 0.1 0  0.166667 0.1 0  0.183333 0.1 0  0.2 0.1 0  0.216667 0.1 0  0.233333 0.1 0  0.25 0.1 0  0.266667 0.1 0  0.283333 0.1 0  0.3 0.1 0  0.316667 0.1 0  0.333333 0.1 0  0.35 0.1 0  0.366667 0.1 0  0.383333 0.1 0  0.4 0.1 0  0.416667 0.1 0  0.433333 0.1 0  0.45 0.1 0  0.466667 0.1 0  0.483333 0.1 0  0.5 0.1 0  0.516667 0.1 0  0.533333 0.1 0  0.55 0.1 0  0.566667 0.1 0  0.583333 0.1 0  0.6 0.1 0  0.616667 0.1 0  0.633333 0.1 0  0.65 0.1 0  0.666667 0.1 0  0.683333 0.1 0  0.7 0.1 0  0.716667 0.1 0  0.733333 0.1 0  0.75 0.1 0  0.766667 0.1 0  0.783333 0.1 0  0.8 0.1 0  0.816667 0.1 0  0.833333 0.1 0  0.85 0.1 0  0.866667 0.1 0  0.883333 0.1 0  0.9 0.1 0  0.916667 0.1 0  0.933333 0.1 0  0.95 0.1 0  0.966667 0.1 0  0.983333 0.1 0  1 0.1 0  0 0.116667 0  0.0166667 0.116667 0  0.0333333 0.116667 0  0.05 0.116667 0  0.0666667 0.116667 0  0.0833333 0.116667 0  0.1 0.116667 0  0.116667 0.116667 0  0.133333 0.116667 0  0.15 0.116667 0  0.166667 0.116667 0  0.183333 0.116667 0  0.2 0.116667 0  0.216667 0.116667 0  0.233333 0.116667 0  0.25 0.116667 0  0.266667 0.116667 0  0.283333 0.116667 0  0.3 0.116667 0  0.316667 0.116667 0  0.333333 0.116667 0  0.35 0.116667 0  0.366667 0.116667 0  0.383333 0.116667 0  0.4 0.116667 0  0.416667 0.116667 0  0.433333 0.116667 0  0.45 0.116667 0  0.466667 0.116667 0  0.483333 0.116667 0  0.5 0.116667 0  0.516667 0.116667 0  0.533333 0.116667 0  0.55 0.116667 0  0.566667 0.116667 0  0.583333 0.116667 0  0.6 0.116667 0  0.616667 0.116667 0  0.633333 0.116667 0  0.65 0.116667 0  0.666667 0.116667 0  0.683333 0.116667 0  0.7 0.116667 0  0.716667 0.116667 0  0.733333 0.116667 0  0.75 0.116667 0  0.766667 0.116667 0  0.783333 0.116667 0  0.8 0.116667 0  0.816667 0.116667 0  0.833333 0.116667 0  0.85 0.116667 0  0.866667 0.116667 0  0.883333 0.116667 0  0.9 0.116667 0  0.916667 0.116667 0  0.933333 0.116667 0  0.95 0.116667 0  0.966667 0.116667 0  0.983333 0.116667 0  1 0.116667 0  0 0.133333 0  0.0166667 0.133333 0  0.0333333 0.133333 0  0.05 0.133333 0  0.0666667 0.133333 0  0.0833333 0.133333 0  0.1 0.133333 0  0.116667 0.133333 0  0.133333 0.133333 0  0.15 0.133333 0  0.166667 0.133333 0  0.183333 0.133333 0  0.2 0.133333 0  0.216667 0.133333 0  0.233333 0.133333 0  0.25 0.133333 0  0.266667 0.133333 0  0.283333 0.133333 0  0.3 0.133333 0  0.316667 0.133333 0  0.333333 0.133333 0  0.35 0.133333 0  0.366667 0.133333 0  0.383333 0.133333 0  0.4 0.133333 0  0.416667 0.133333 0  0.433333 0.133333 0  0.45 0.133333 0  0.466667 0.133333 0  0.483333 0.133333 0  0.5 0.133333 0  0.516667 0.133333 0  0.533333 0.133333 0  0.55 0.133333 0  0.566667 0.133333 0  0.583333 0.133333 0  0.6 0.133333 0  0.616667 0.133333 0  0.633333 0.133333 0  0.65 0.133333 0  0.666667 0.133333 0  0.683333 0.133333 0  0.7 0.133333 0  0.716667 0.133333 0  0.733333 0.133333 0  0.75 0.133333 0  0.766667 0.133333 0  0.783333 0.133333 0  0.8 0.133333 0  0.816667 0.133333 0  0.833333 0.133333 0  0.85 0.133333 0  0.866667 0.
[...]
<PointData  Scalars="u"> 
<DataArray  type="Float32"  Name="u"  format="ascii">0.000000e+00  0.000000e+00  0.000000e+00  0.000000e+00  0.000000e+00  0.000000e+00  0.000000e+00  0.000000e+00  0.000000e+00  0.000000e+00  0.000000e+00  0.000000e+00  0.000000e+00  0.000000e+00  0.000000e+00  0.000000e+00  0.000000e+00  0.000000e+00  0.000000e+00  0.000000e+00  0.000000e+00  0.000000e+00  0.000000e+00  0.000000e+00  0.000000e+00  0.000000e+00  0.000000e+00  0.000000e+00  0.000000e+00  0.000000e+00  0.000000e+00  0.000000e+00  0.000000e+00  0.000000e+00  0.000000e+00  0.000000e+00  0.000000e+00  0.000000e+00  0.000000e+00  0.000000e+00  0.000000e+00  0.000000e+00  0.000000e+00  0.000000e+00  0.000000e+00  0.000000e+00  0.000000e+00  0.000000e+00  0.000000e+00  0.000000e+00  0.000000e+00  0.000000e+00  0.000000e+00  0.000000e+00  0.000000e+00  0.000000e+00  0.000000e+00  0.000000e+00  0.000000e+00  0.000000e+00  0.000000e+00  0.000000e+00  7.442485e-04  1.485190e-03  2.219534e-03  2.944016e-03  3.655419e-03  4.350582e-03  5.026416e-03  5.679918e-03  6.308186e-03  6.908428e-03  7.477977e-03  8.014303e-03  8.515023e-03  8.977912e-03  9.400914e-03  9.782150e-03  1.011993e-02  1.041274e-02  1.065929e-02  1.085849e-02  1.100945e-02  1.111149e-02  1.116416e-02  1.116724e-02  1.112070e-02  1.102475e-02  1.087983e-02  1.068656e-02  1.044582e-02  1.015867e-02  9.826388e-03  9.450449e-03  9.032522e-03  8.574467e-03  8.078316e-03  7.546275e-03  6.980708e-03  6.384126e-03  5.759182e-03  5.108650e-03  4.435422e-03  3.742488e-03  3.032927e-03  2.309891e-03  1.576593e-03  8.362902e-04  9.227208e-05  -6.521560e-04  -1.393687e-03  -2.129025e-03  -2.854905e-03  -3.568102e-03  -4.265445e-03  -4.943839e-03  -5.600268e-03  -6.231816e-03  -6.835677e-03  -7.409169e-03  -7.949743e-03  -8.454998e-03  0.000000e+00  1.488497e-03  2.970381e-03  4.439068e-03  5.888033e-03  7.310839e-03  8.701164e-03  1.005283e-02  1.135984e-02  1.261637e-02  1.381686e-02  1.495595e-02  1.602861e-02  1.703005e-02  1.795582e-02  1.880183e-02  1.956430e-02  2.023985e-02  2.082548e-02  2.131859e-02  2.171698e-02  2.201889e-02  2.222297e-02  2.232832e-02  2.233447e-02  2.224140e-02  2.204951e-02  2.175965e-02  2.137313e-02  2.089164e-02  2.031734e-02  1.965278e-02  1.890090e-02  1.806504e-02  1.714893e-02  1.615663e-02  1.509255e-02  1.396142e-02  1.276825e-02  1.151836e-02  1.021730e-02  8.870844e-03  7.484976e-03  6.065854e-03  4.619782e-03  3.153186e-03  1.672580e-03  1.845442e-04  -1.304312e-03  -2.787373e-03  -4.258051e-03  -5.709811e-03  -7.136203e-03  -8.530891e-03  -9.887677e-03  -1.120054e-02  -1.246363e-02  -1.367135e-02  -1.481834e-02  -1.589949e-02  -1.691000e-02  0.000000e+00  2.232745e-03  4.455571e-03  6.658602e-03  8.832049e-03  1.096626e-02  1.305175e-02  1.507925e-02  1.703976e-02  1.892456e-02  2.072528e-02  2.243393e-02  2.404291e-02  2.554507e-02  2.693374e-02  2.820274e-02  2.934645e-02  3.035978e-02  3.123822e-02  3.197788e-02  3.257547e-02  3.302834e-02  3.333446e-02  3.349249e-02  3.350171e-02  3.336210e-02  3.307426e-02  3.263948e-02  3.205969e-02  3.133747e-02  3.047601e-02  2.947917e-02  2.835135e-02  2.709757e-02  2.572340e-02  2.423495e-02  2.263883e-02  2.094212e-02  1.915238e-02  1.727755e-02  1.532595e-02  1.330627e-02  1.122746e-02  9.098780e-03  6.929673e-03  4.729779e-03  2.508871e-03  2.768162e-04  -1.956468e-03  -4.181060e-03  -6.387076e-03  -8.564716e-03  -1.070430e-02  -1.279634e-02  -1.483152e-02  -1.680080e-02  -1.869545e-02  -2.050703e-02  -2.222751e-02  -2.384923e-02  -2.536499e-02  0.000000e+00  2.976994e-03  5.940762e-03  8.878136e-03  1.177607e-02  1.462168e-02  1.740233e-02  2.010566e-02  2.271967e-02  2.523274e-02  2.763371e-02  2.991191e-02  3.205721e-02  3.406009e-02  3.591165e-02  3.760366e-02  3.912860e-02  4.047971e-02  4.165097e-02  4.263718e-02  4.343396e-02  4.403778e-02  4.444595e-02  4.465665e-02  4.466895e-02  4.448279e-02  4.409901e-02  4.351931e-02  4.274625e-02  4.178329e-02  4.063469e-02  3.930555e-02  3.780179e-02  3.613009e-02  3.429787e-02  3.231326e-02  3.018510e-02  2.792283e-02  2.553651e-02  2.303673e-02  2.043460e-02  1.774169e-02  1.496995e-02  1.213171e-02  9.239564e-03  6.306371e-03  3.345161e-03  3.690883e-04  -2.608624e-03  -5.574747e-03  -8.516102e-03  -1.141962e-02  -1.427241e-02  -1.706178e-02  -1.977535e-02  -2.240107e-02  -2.492726e-02  -2.734271e-02  -2.963667e-02  -3.179897e-02  -3.381999e-02  0.000000e+00  3.721242e-03  7.425952e-03  1.109767e-02  1.472008e-02  1.827710e-02  2.175291e-02  2.513208e-02  2.839959e-02  3.154093e-02  3.454214e-02  3.738988e-02  4.007151e-02  4.257511e-02  4.488956e-02  4.700457e-02  4.891075e-02  5.059963e-02  5.206371e-02  5.329647e-02  5.429245e-02  5.504723e-02  5.555743e-02  5.582081e-02  5.583619e-02  5.560349e-02  5.512376e-02  5.439913e-02  5.343282e-02  5.222911e-02  5.079336e-02  4.913194e-02  4.725224e-02  4.516261e-02  4.287233e-02  4.039158e-02  3.773138e-02  3.490354e-02  3.192063e-02  2.879591e-02  2.554325e-02  2.217711e-02  1.871244e-02  1.516463e-02  1.154945e-02  7.882964e-03  4.181451e-03  4.613604e-04  -3.260780e-03  -6.968433e-03  -1.064513e-02  -1.427453e-02  -1.784051e-02  -2.132723e-02  -2.471919e-02  -2.800134e-02  -3.115908e-02  -3.417838e-02  -3.704584e-02  -3.974871e-02  -4.227499e-02  0.000000e+00  4.465491e-03  8.911142e-03  1.331720e-02  1.766410e-02  2.193252e-02  2.610349e-02  3.015850e-02  3.407951e-02  3.784912e-02  4.145057e-02  4.486786e-02  4.808582e-02  5.109014e-02  5.386747e-02  5.640549e-02  5.869290e-02  6.071956e-02  6.247645e-02  6.395577e-02  6.515095e-02  6.605667e-02  6.666892e-02  6.698497e-02  6.700342e-02  6.672419e-02  6.614852e-02  6.527896e-02  6.411938e-02  6.267493e-02  6.095203e-02  5.895833e-02  5.670269e-02  5.419513e-02  5.144680e-02  4.846990e-02  4.527765e-02  4.188425e-02  3.830476e-02  3.455509e-02  3.065190e-02  2.661253e-02  2.245493e-02  1.819756e-02  1.385935e-02  9.459557e-03  5.017741e-03  5.536325e-04  -3.912936e-03  -8.362120e-03  -1.277415e-02  -1.712943e-02  -2.140861e-02  -2.559267e-02  -2.966303e-02  -3.360161e-02  -3.739089e-02  -4.101406e-02  -4.445501e-02  -4.769846e-02  -5.072999e-02  0.000000e+00  5.209739e-03  1.039633e-02  1.553674e-02  2.060812e-02  2.558794e-02  3.045407e-02  3.518491e-02  3.975943e-02  4.415730e-02  4.835900e-02  5.234584e-02  5.610012e-02  5.960516e-02  6.284538e-02  6.580640e-02  6.847505e-02  7.083948e-02  7.288919e-02  7.461506e-02  7.600944e-02  7.706612e-02  7.778041e-02  7.814913e-02  7.817066e-02  7.784489e-02  7.717327e-02  7.615879e-02  7.480594e-02  7.312075e-02  7.111070e-02  6.878472e-02  6.615314e-02  6.322766e-02  6.002127e-02  5.654821e-02  5.282393e-02  4.886495e-02  4.468888e-02  4.031427e-02  3.576055e-02  3.104795e-02  2.619742e-02  2.123049e-02  1.616924e-02  1.103615e-02  5.854031e-03  6.459046e-04  -4.565092e-03  -9.755806e-03  -1.490318e-02  -1.998434e-02  -2.497671e-02  -2.985812e-02  -3.460687e-02  -3.920187e-02  -4.362271e-02  -4.784974e-02  -5.186418e-02  -5.564820e-02  -5.918499e-02  0.000000e+00  5.953988e-03  1.188152e-02  1.775627e-02  2.355213e-02  2.924336e-02  3.480466e-02  4.021133e-02  4.543935e-02  5.046549e-02  5.526742e-02  5.982382e-02  6.411442e-02  6.812018e-02  7.182330e-02  7.520732e-02  7.825720e-02  8.095941e-02  8.330193e-02  8.527436e-02  8.686793e-02  8.807556e-02  8.889189e-02  8.931329e-02  8.933790e-02  8.896559e-02  8.819802e-02  8.703861e-02  8.549251e-02  8.356657e-02  8.126937e-02  7.861111e-02  7.560359e-02  7.226018e-02  6.859573e-02  6.462653e-02  6.037020e-02  5.584566e-02  5.107301e-02  4.607345e-02  4.086920e-02  3.548337e-02  2.993990e-02  2.426341e-02  1.847913e-02  1.261274e-02  6.690322e-03  7.381767e-04  -5.217248e-03  -1.114949e-02  -1.703220e-02  -2.283924e-02  -2.854481e-02  -3.412356e-02  -3.955071e-02  -4.480214e-02  -4.985452e-02  -5.468541e-02  -5.927335e-02  -6.359794e-02  -6.763998e-02  0.000000e+00  6.698236e-03  1.336671e-02  1.997581e-02  2.649615e-02  3.289877e-02  3.915524e-02  4.523774e-02  5.111927e-02  5.677368e-02  6.217585e-02  6.730179e-02  7.212873e-02  7.663520e-02  8.080121e-02  8.460823e-02  8.803935e-02  9.107934e-02  9.371467e-02  9.593365e-02  9.772642e-02  9.908501e-02  1.000034e-01  1.004775e-01  1.005051e-01  1.000863e-01  9.922278e-02  9.791844e-02  9.617907e-02  9.401240e-02  9.142804e-02  8.843750e-02  8.505404e-02  8.129270e-02  7.717020e-02  7.270484e-02  6.791648e-02  6.282637e-02  5.745714e-02  5.183264e-02  4.597785e-02  3.991880e-02  3.368239e-02  2.729634e-02  2.078902e-02  1.418934e-02  7.526612e-03  8.304487e-04  -5.869404e-03  -1.254318e-02  -1.916123e-02  -2.569415e-02  -3.211291e-02  -3.838901e-02  -4.449455e-02  -5.040241e-02  -5.608634e-02  -6.152109e-02  -6.668252e-02  -7.154769e-02  -7.609498e-02  0.000000e+00  7.442485e-03  1.485190e-02  2.219534e-02  2.944016e-02  3.655419e-02  4.350582e-02  5.026416e-02  5.679918e-02  6.308186e-02  6.908428e-02  7.477977e-02  8.014303e-02  8.515023e-02  8.977912e-02  9.400914e-02  9.782150e-02  1.011993e-01  1.041274e-01  1.065929e-01  1.085849e-01  1.100945e-01  1.111149e-01  1.116416e-01  1.116724e-01  1.112070e-01  1.102475e-01  1.087983e-01  1.068656e-01  1.044582e-01  1.015867e-01  9.826388e-02  9.450449e-02  9.032522e-02  8.574467e-02  8.078316e-02  7.546275e-02  6.980708e-02  6.384126e-02  5.759182e-02  5.108650e-02  4.435422e-02  3.742488e-02  3.032927e-02  2.309891e-02  1.576593e-02  8.362902e-03  9.227208e-04  -6.521560e-03  -1.393687e-02  -2.129025e-02  -2.854905e-02  -3.568102e-02  -4.265445e-02  -4.943839e-02  -5.600268e-02  -6.231816e-02  -6.835677e-02  -7.409169e-02  -7.949743e-02  -8.454998e-02  0.000000e+00  8.186733e-03  1.633709e-02  2.441487e-02  3.238418e-02  4.020961e-02  4.785640e-02  5.529057e-02  6.247910e-02  6.939005e-02  7.599271e-02  8.225775e-02  8.815733e-02  9.366525e-02  9.875703e-02  1.034101e-01  1.076037e-01  1.113192e-01  1.145402e-01  1.172522e-01  1.194434e-01  1.211039e-01  1.222264e-01  1.228058e-01  1.228396e-01  1.223277e-01  1.212723e-01  1.196781e-01  1.175522e-01  1.149040e-01  1.117454e-01  1.080903e-01  1.039549e-01  9.935775e-02  9.431913e-02  8.886148e-02  8.300903e-02  7.678779e-02  7.022539e-02  6.335100e-02  5.619515e-02  4.878964e-02  4.116737e-02  3.336219e-02  2.540880e-02  1.734252e-02  9.199192e-03  1.014993e-03  -7.173716e-03  -1.533055e-02  -2.341928e-02  -3.140396e-02  -3.924912e-02  -4.691990e-02  -5.438223e-02  -6.160294e-02  -6.854997e-02  -7.519245e-02  -8.150085e-02  -8.744717e-02  -9.300498e-02  0.000000e+00  8.930982e-03  1.782228e-02  2.663441e-02  3.532820e-02  4.386503e-02  5.220698e-02  6.031699e-02  6.815902e-02  7.569823e-02  8.290113e-02  8.973572e-02  9.617163e-02  1.021803e-01  1.077349e-01  1.128110e-01  1.173858e-01  1.214391e-01  1.249529e-01  1.279115e-01  1.303019e-01  1.321133e-01  1.333378e-01  1.339699e-01  1.340068e-01  1.334484e-01  1.322970e-01  1.305579e-01  1.282388e-01  1.253499e-01  1.219041e-01  1.179167e-01  1.134054e-01  1.083903e-01  1.028936e-01  9.693979e-02  9.055530e-02  8.376849e-02  7.660952e-02  6.911018e-02  6.130380e-02  5.322506e-02  4.490985e-02  3.639512e-02  2.771869e-02  1.891911e-02  1.003548e-02  1.107265e-03  -7.825872e-03  -1.672424e-02  -2.554831e-02  -3.425886e-02  -4.281722e-02  -5.118534e-02  -5.932606e-02  -6.720321e-02  -7.478179e-02  -8.202812e-02  -8.891002e-02  -9.539691e-02  -1.014600e-01  0.000000e+00  9.675230e-03  1.930748e-02  2.885394e-02  3.827221e-02  4.752045e-02  5.655757e-02  6.534341e-02  7.383894e-02  8.200642e-02  8.980956e-02  9.721370e-02  1.041859e-01  1.106953e-01  1.167129e-01  1.222119e-01  1.271680e-01  1.315590e-01  1.353656e-01  1.385708e-01  1.411604e-01  1.431228e-01  1.444493e-01  1.451341e-01  1.451741e-01  1.445691e-01  1.433218e-01  1.414377e-01  1.389253e-01  1.357957e-01  1.320627e-01  1.277430e-01  1.228558e-01  1.174228e-01  1.114681e-01  1.050181e-01  9.810158e-02  9.074920e-02  8.299364e-02  7.486936e-02  6.641245e-02  5.766048e-02  4.865234e-02  3.942805e-02  3.002858e-02  2.049571e-02  1.087177e-02  1.199537e-03  -8.478028e-03  -1.811793e-02  -2.767733e-02  -3.711377e-02  -4.638532e-02  -5.545079e-02  -6.426990e-02  -7.280348e-02  -8.101360e-02  -8.886380e-02  -9.631919e-02  -1.033467e-01  -1.099150e-01  0.000000e+00  1.041948e-02  2.079267e-02  3.107347e-02  4.121623e-02  5.117587e-02  6.090815e-02  7.036982e-02  7.951886e-02  8.831461e-02  9.671799e-02  1.046917e-01  1.122002e-01  1.192103e-01  1.256908e-01  1.316128e-01  1.369501e-01  1.416790e-01  1.457784e-01  1.492301e-01  1.520189e-01  1.541322e-01  1.555608e-01  1.562983e-01  1.563413e-01  1.556898e-01  1.543465e-01  1.523176e-01  1.496119e-01  1.462415e-01  1.422214e-01  1.375694e-01  1.323063e-01  1.264553e-01  1.200425e-01  1.130964e-01  1.056479e-01  9.772991e-02  8.937777e-02  8.062854e-02  7.152110e-02  6.209591e-02  5.239483e-02  4.246097e-02  3.233847e-02  2.207230e-02  1.170806e-02  1.291809e-03  -9.130184e-03  -1.951161e-02  -2.980636e-02  -3.996868e-02  -4.995342e-02  -5.971624e-02  -6.921374e-02  -7.840375e-02  -8.724542e-02  -9.569948e-02  -1.037284e-01  -1.112964e-01  -1.183700e-01  0.000000e+00  1.116373e-02  2.227786e-02  3.329301e-02  4.416025e-02  5.483129e-02  6.525873e-02  7.539624e-02  8.519878e-02  9.462279e-02  1.036264e-01  1.121697e-01  1.202145e-01  1.277253e-01  1.346687e-01  1.410137e-01  1.467323e-01  1.517989e-01  1.561911e-01  1.598894e-01  1.628774e-01  1.651417e-01  1.666723e-01  1.674624e-01  1.675086e-01  1.668105e-01  1.653713e-01  1.631974e-01  1.602984e-01  1.566873e-01  1.523801e-01  1.473958e-01  1.417567e-01  1.354878e-01  1.286170e-01  1.211747e-01  1.131941e-01  1.047106e-01  9.576190e-02  8.638773e-02  7.662975e-02  6.653133e-02  5.613732e-02  4.549390e-02  3.464836e-02  2.364889e-02  1.254435e-02  1.384081e-03  -9.782340e-03  -2.090530e-02  -3.193538e-02  -4.282358e-02  -5.352152e-02  -6.398168e-02  -7.415758e-02  -8.400401e-02  -9.347723e-02  -1.025352e-01  -1.111375e-01  -1.192461e-01  -1.268250e-01  0.000000e+00  1.190798e-02  2.376305e-02  3.551254e-02  4.710426e-02  5.848671e-02  6.960931e-02  8.042265e-02  9.087869e-02  1.009310e-01  1.105348e-01  1.196476e-01  1.282288e-01  1.362404e-01  1.436466e-01  1.504146e-01  1.565144e-01  1.619188e-01  1.666039e-01  1.705487e-01  1.737359e-01  1.761511e-01  1.777838e-01  1.786266e-01  1.786758e-01  1.779312e-01  1.763960e-01  1.740772e-01  1.709850e-01  1.671331e-01  1.625387e-01  1.572222e-01  1.512072e-01  1.445204e-01  1.371915e-01  1.292531e-01  1.207404e-01  1.116913e-01  1.021460e-01  9.214691e-02  8.173840e-02  7.096675e-02  5.987981e-02  4.852683e-02  3.695826e-02  2.522549e-02  1.338064e-02  1.476353e-03  -1.043450e-02  -2.229899e-02  -3.406441e-02  -4.567849e-02  -5.708963e-02  -6.824713e-02  -7.910142e-02  -8.960428e-02  -9.970905e-02  -1.093708e-01  -1.185467e-01  -1.271959e-01  -1.352800e-01  0.000000e+00  1.265222e-02  2.524824e-02  3.773208e-02  5.004828e-02  6.214213e-02  7.395989e-02  8.544907e-02  9.655861e-02  1.072392e-01  1.174433e-01  1.271256e-01  1.362431e-01  1.447554e-01  1.526245e-01  1.598155e-01  1.662966e-01  1.720387e-01  1.770166e-01  1.812080e-01  1.845943e-01  1.871606e-01  1.888953e-01  1.897908e-01  1.898430e-01  1.890519e-01  1.874208e-01  1.849571e-01  1.816716e-01  1.775790e-01  1.726974e-01  1.670486e-01  1.606576e-01  1.535529e-01  1.457659e-01  1.373314e-01  1.282867e-01  1.186720e-01  1.085301e-01  9.790609e-02  8.684705e-02  7.540217e-02  6.362229e-02  5.155976e-02  3.926815e-02  2.680208e-02  1.421693e-02  1.568625e-03  -1.108665e-02  -2.369267e-02  -3.619343e-02  -4.853339e-02  -6.065773e-02  -7.251257e-02  -8.404526e-02  -9.520455e-02  -1.059409e-01  -1.162065e-01  -1.259559e-01  -1.351456e-01  -1.437350e-01  0.000000e+00  1.339647e-02  2.673343e-02  3.995161e-02  5.299230e-02  6.579755e-02  7.831048e-02  9.047549e-02  1.022385e-01  1.135474e-01  1.243517e-01  1.346036e-01  1.442575e-01  1.532704e-01  1.616024e-01  1.692165e-01  1.760787e-01  1.821587e-01  1.874293e-01  1.918673e-01  1.954528e-01  1.981700e-01  2.000068e-01  2.009549e-01  2.010103e-01  2.001726e-01  1.984456e-01  1.958369e-01  1.923581e-01  1.880248e-01  1.828561e-01  1.768750e-01  1.701081e-01  1.625854e-01  1.543404e-01  1.454097e-01  1.358330e-01  1.256527e-01  1.149143e-01  1.036653e-01  9.195570e-02  7.983759e-02  6.736478e-02  5.459268e-02  4.157804e-02  2.837867e-02  1.505322e-02  1.660897e-03  -1.173881e-02  -2.508636e-02  -3.832246e-02  -5.138830e-02  -6.422583e-02  -7.677802e-02  -8.898910e-02  -1.008048e-01  -1.121727e-01  -1.230422e-01  -1.333650e-01  -1.430954e-01  -1.521900e-01  0.000000e+00  1.414072e-02  2.821862e-02  4.217114e-02  5.593631e-02  6.945297e-02  8.266106e-02  9.550190e-02  1.079184e-01  1.198555e-01  1.312601e-01  1.420816e-01  1.522718e-01  1.617854e-01  1.705803e-01  1.786174e-01  1.858609e-01  1.922786e-01  1.978421e-01  2.025266e-01  2.063113e-01  2.091795e-01  2.111182e-01  2.121191e-01  2.121775e-01  2.112933e-01  2.094703e-01  2.067167e-01  2.030447e-01  1.984706e-01  1.930148e-01  1.867014e-01  1.795585e-01  1.716179e-01  1.629149e-01  1.534880e-01  1.433792e-01  1.326334e-01  1.212984e-01  1.094245e-01  9.706435e-02  8.427302e-02  7.110727e-02  5.762561e-02  4.388793e-02  2.995526e-02  1.588951e-02  1.753170e-03  -1.239096e-02  -2.648005e-02  -4.045148e-02  -5.424320e-02  -6.779393e-02  -8.104346e-02  -9.393294e-02  -1.064051e-01  -1.184045e-01  -1.298779e-01  -1.407742e-01  -1.510451e-01  -1.606450e-01  0.000000e+00  1.488497e-02  2.970381e-02  4.439068e-02  5.888033e-02  7.310839e-02  8.701164e-02  1.005283e-01  1.135984e-01  1.261637e-01  1.381686e-01  1.495595e-01  1.602861e-01  1.703005e-01  1.795582e-01  1.880183e-01  1.956430e-01  2.023985e-01  2.082548e-01  2.131859e-01  2.171698e-01  2.201889e-01  2.222297e-01  2.232832e-01  2.233447e-01  2.224140e-01  2.204951e-01  2.175965e-01  2.137313e-01  2.089164e-01  2.031734e-01  1.965278e-01  1.890090e-01  1.806504e-01  1.714893e-01  1.615663e-01  1.509255e-01  1.396142e-01  1.276825e-01  1.151836e-01  1.021730e-01  8.870844e-02  7.484976e-02  6.065854e-02  4.619782e-02  3.153186e-02  1.672580e-02  1.845442e-03  -1.304312e-02  -2.787373e-02  -4.258051e-02  -5.709811e-02  -7.136203e-02  -8.530891e-02  -9.887677e-02  -1.120054e-01  -1.246363e-01  -1.367135e-01  -1.481834e-01  -1.589949e-01  -1.691000e-01  0.000000e+00  1.562922e-02  3.118900e-02  4.661021e-02  6.182435e-02  7.676381e-02  9.136222e-02  1.055547e-01  1.192783e-01  1.324719e-01  1.450770e-01  1.570375e-01  1.683004e-01  1.788155e-01  1.885362e-01  1.974192e-01  2.054252e-01  2.125185e-01  2.186676e-01  2.238452e-01  2.280283e-01  2.311983e-01  2.333412e-01  2.344474e-01  2.345120e-01  2.335347e-01  2.315198e-01  2.284764e-01  2.244178e-01  2.193623e-01  2.133321e-01  2.063542e-01  1.984594e-01  1.896830e-01  1.800638e-01  1.696446e-01  1.584718e-01  1.465949e-01  1.340667e-01  1.209428e-01  1.072817e-01  9.314386e-02  7.859225e-02  6.369146e-02  4.850771e-02  3.310845e-02  1.756209e-02  1.937714e-03  -1.369528e-02  -2.926742e-02  -4.470953e-02  -5.995301e-02  -7.493013e-02  -8.957435e-02  -1.038206e-01  -1.176056e-01  -1.308681e-01  -1.435492e-01  -1.555925e-01  -1.669446e-01  -1.775550e-01  0.000000e+00  1.637347e-02  3.267419e-02  4.882975e-02  6.476836e-02  8.041923e-02  9.571280e-02  1.105811e-01  1.249582e-01  1.387801e-01  1.519854e-01  1.645155e-01  1.763147e-01  1.873305e-01  1.975141e-01  2.068201e-01  2.152073e-01  2.226384e-01  2.290803e-01  2.345045e-01  2.388868e-01  2.422078e-01  2.444527e-01  2.456116e-01  2.456792e-01  2.446554e-01  2.425446e-01  2.393562e-01  2.351044e-01  2.298081e-01  2.234908e-01  2.161805e-01  2.079099e-01  1.987155e-01  1.886383e-01  1.777230e-01  1.660181e-01  1.535756e-01  1.404508e-01  1.267020e-01  1.123903e-01  9.757928e-02  8.233473e-02  6.672439e-02  5.081760e-02  3.468504e-02  1.839838e-02  2.029986e-03  -1.434743e-02  -3.066111e-02  -4.683856e-02  -6.280792e-02  -7.849823e-02  -9.383980e-02  -1.087645e-01  -1.232059e-01  -1.370999e-01  -1.503849e-01  -1.630017e-01  -1.748943e-01  -1.86010