<?xml version="1.0"?>
<VTKFile type="UnstructuredGrid"  version="0.1"  >
<UnstructuredGrid>
<Piece  NumberOfPoints="441" NumberOfCells="800">
<Points>
<DataArray  type="Float32"  NumberOfComponents="3"  format="ascii">0 0 0  0.05 0 0  0.1 0 0  0.15 0 0  0.2 0 0  0.25 0 0  0.3 0 0  0.35 0 0  0.4 0 0  0.45 0 0  0.5 0 0  0.55 0 0  0.6 0 0  0.65 0 0  0.7 0 0  0.75 0 0  0.8 0 0  0.85 0 0  0.9 0 0  0.95 0 0  1 0 0  0 0.05 0  0.05 0.05 0  0.1 0.05 0  0.15 0.05 0  0.2 0.05 0  0.25 0.05 0  0.3 0.05 0  0.35 0.05 0  0.4 0.05 0  0.45 0.05 0  0.5 0.05 0  0.55 0.05 0  0.6 0.05 0  0.65 0.05 0  0.7 0.05 0  0.75 0.05 0  0.8 0.05 0  0.85 0.05 0  0.9 0.05 0  0.95 0.05 0  1 0.05 0  0 0.1 0  0.05 0.1 0  0.1 0.1 0  0.15 0.1 0  0.2 0.1 0  0.25 0.1 0  0.3 0.1 0  0.35 0.1 0  0.4 0.1 0  0.45 0.1 0  0.5 0.1 0  0.55 0.1 0  0.6 0.1 0  0.65 0.1 0  0.7 0.1 0  0.75 0.1 0  0.8 0.1 0  0.85 0.1 0  0.9 0.1 0  0.95 0.1 0  1 0.1 0  0 0.15 0  0.05 0.15 0  0.1 0.15 0  0.15 0.15 0  0.2 0.15 0  0.25 0.15 0  0.3 0.15 0  0.35 0.15 0  0.4 0.15 0  0.45 0.15 0  0.5 0.15 0  0.55 0.15 0  0.6 0.15 0  0.65 0.15 0  0.7 0.15 0  0.75 0.15 0  0.8 0.15 0  0.85 0.15 0  0.9 0.15 0  0.95 0.15 0  1 0.15 0  0 0.2 0  0.05 0.2 0  0.1 0.2 0  0.15 0.2 0  0.2 0.2 0  0.25 0.2 0  0.3 0.2 0  0.35 0.2 0  0.4 0.2 0  0.45 0.2 0  0.5 0.2 0  0.55 0.2 0  0.6 0.2 0  0.65 0.2 0  0.7 0.2 0  0.75 0.2 0  0.8 0.2 0  0.85 0.2 0  0.9 0.2 0  0.95 0.2 0  1 0.2 0  0 0.25 0  0.05 0.25 0  0.1 0.25 0  0.15 0.25 0  0.2 0.25 0  0.25 0.25 0  0.3 0.25 0  0.35 0.25 0  0.4 0.25 0  0.45 0.25 0  0.5 0.25 0  0.55 0.25 0  0.6 0.25 0  0.65 0.25 0  0.7 0.25 0  0.75 0.25 0  0.8 0.25 0  0.85 0.25 0  0.9 0.25 0  0.95 0.25 0  1 0.25 0  0 0.3 0  0.05 0.3 0  0.1 0.3 0  0.15 0.3 0  0.2 0.3 0  0.25 0.3 0  0.3 0.3 0  0.35 0.3 0  0.4 0.3 0  0.45 0.3 0  0.5 0.3 0  0.55 0.3 0  0.6 0.3 0  0.65 0.3 0  0.7 0.3 0  0.75 0.3 0  0.8 0.3 0  0.85 0.3 0  0.9 0.3 0  0.95 0.3 0  1 0.3 0  0 0.35 0  0.05 0.35 0  0.1 0.35 0  0.15 0.35 0  0.2 0.35 0  0.25 0.35 0  0.3 0.35 0  0.35 0.35 0  0.4 0.35 0  0.45 0.35 0  0.5 0.35 0  0.55 0.35 0  0.6 0.35 0  0.65 0.35 0  0.7 0.35 0  0.75 0.35 0  0.8 0.35 0  0.85 0.35 0  0.9 0.35 0  0.95 0.35 0  1 0.35 0  0 0.4 0  0.05 0.4 0  0.1 0.4 0  0.15 0.4 0  0.2 0.4 0  0.25 0.4 0  0.3 0.4 0  0.35 0.4 0  0.4 0.4 0  0.45 0.4 0  0.5 0.4 0  0.55 0.4 0  0.6 0.4 0  0.65 0.4 0  0.7 0.4 0  0.75 0.4 0  0.8 0.4 0  0.85 0.4 0  0.9 0.4 0  0.95 0.4 0  1 0.4 0  0 0.45 0  0.05 0.45 0  0.1 0.45 0  0.15 0.45 0  0.2 0.45 0  0.25 0.45 0  0.3 0.45 0  0.35 0.45 0  0.4 0.45 0  0.45 0.45 0  0.5 0.45 0  0.55 0.45 0  0.6 0.45 0  0.65 0.45 0  0.7 0.45 0  0.75 0.45 0  0.8 0.45 0  0.85 0.45 0  0.9 0.45 0  0.95 0.45 0  1 0.45 0  0 0.5 0  0.05 0.5 0  0.1 0.5 0  0.15 0.5 0  0.2 0.5 0  0.25 0.5 0  0.3 0.5 0  0.35 0.5 0  0.4 0.5 0  0.45 0.5 0  0.5 0.5 0  0.55 0.5 0  0.6 0.5 0  0.65 0.5 0  0.7 0.5 0  0.75 0.5 0  0.8 0.5 0  0.85 0.5 0  0.9 0.5 0  0.95 0.5 0  1 0.5 0  0 0.55 0  0.05 0.55 0  0.1 0.55 0  0.15 0.55 0  0.2 0.55 0  0.25 0.55 0  0.3 0.55 0  0.35 0.55 0  0.4 0.55 0  0.45 0.55 0  0.5 0.55 0  0.55 0.55 0  0.6 0.55 0  0.65 0.55 0  0.7 0.55 0  0.75 0.55 0  0.8 0.55 0  0.85 0.55 0  0.9 0.55 0  0.95 0.55 0  1 0.55 0  0 0.6 0  0.05 0.6 0  0.1 0.6 0  0.15 0.6 0  0.2 0.6 0  0.25 0.6 0  0.3 0.6 0  0.35 0.6 0  0.4 0.6 0  0.45 0.6 0  0.5 0.6 0  0.55 0.6 0  0.6 0.6 0  0.65 0.6 0  0.7 0.6 0  0.75 0.6 0  0.8 0.6 0  0.85 0.6 0  0.9 0.6 0  0.95 0.6 0  1 0.6 0  0 0.65 0  0.05 0.65 0  0.1 0.65 0  0.15 0.65 0  0.2 0.65 0  0.25 0.65 0  0.3 0.65 0  0.35 0.65 0  0.4 0.65 0  0.45 0.65 0  0.5 0.65 0  0.55 0.65 0  0.6 0.65 0  0.65 0.65 0  0.7 0.65 0  0.75 0.65 0  0.8 0.65 0  0.85 0.65 0  0.9 0.65 0  0.95 0.65 0  1 0.65 0  0 0.7 0  0.05 0.7 0  0.1 0.7 0  0.15 0.7 0  0.2 0.7 0  0.25 0.7 0  0.3 0.7 0  0.35 0.7 0  0.4 0.7 0  0.45 0.7 0  0.5 0.7 0  0.55 0.7 0  0.6 0.7 0  0.65 0.7 0  0.7 0.7 0  0.75 0.7 0  0.8 0.7 0  0.85 0.7 0  0.9 0.7 0  0.95 0.7 0  1 0.7 0  0 0.75 0  0.05 0.75 0  0.1 0.75 0  0.15 0.75 0  0.2 0.75 0  0.25 0.75 0  0.3 0.75 0  0.35 0.75 0  0.4 0.75 0  0.45 0.75 0  0.5 0.75 0  0.55 0.75 0  0.6 0.75 0  0.65 0.75 0  0.7 0.75 0  0.75 0.75 0  0.8 0.75 0  0.85 0.75 0  0.9 0.75 0  0.95 0.75 0  1 0.75 0  0 0.8 0  0.05 0.8 0  0.1 0.8 0  0.15 0.8 0  0.2 0.8 0  0.25 0.8 0  0.3 0.8 0  0.35 0.8 0  0.4 0.8 0  0.45 0.8 0  0.5 0.8 0  0.55 0.8 0  0.6 0.8 0  0.65 0.8 0  0.7 0.8 0  0.75 0.8 0  0.8 0.8 0  0.85 0.8 0  0.9 0.8 0  0.95 0.8 0  1 0.8 0  0 0.85 0  0.05 0.85 0  0.1 0.85 0  0.15 0.85 0  0.2 0.85 0  0.25 0.85 0  0.3 0.85 0  0.35 0.85 0  0.4 0.85 0  0.45 0.85 0  0.5 0.85 0  0.55 0.85 0  0.6 0.85 0  0.65 0.85 0  0.7 0.85 0  0.75 0.85 0  0.8 0.85 0  0.85 0.85 0  0.9 0.85 0  0.95 0.85 0  1 0.85 0  0 0.9 0  0.05 0.9 0  0.1 0.9 0  0.15 0.9 0  0.2 0.9 0  0.25 0.9 0  0.3 0.9 0  0.35 0.9 0  0.4 0.9 0  0.45 0.9 0  0.5 0.9 0  0.55 0.9 0  0.6 0.9 0  0.65 0.9 0  0.7 0.9 0  0.75 0.9 0  0.8 0.9 0  0.85 0.9 0  0.9 0.9 0  0.95 0.9 0  1 0.9 0  0 0.95 0  0.05 0.95 0  0.1 0.95 0  0.15 0.95 0  0.2 0.95 0  0.25 0.95 0  0.3 0.95 0  0.35 0.95 0  0.4 0.95 0  0.45 0.95 0  0.5 0.95 0  0.55 0.95 0  0.6 0.95 0  0.65 0.95 0  0.7 0.95 0  0.75 0.95 0  0.8 0.95 0  0.85 0.95 0  0.9 0.95 0  0.95 0.95 0  1 0.95 0  0 1 0  0.05 1 0  0.1 1 0  0.15 1 0  0.2 1 0  0.25 1 0  0.3 1 0  0.35 1 0  0.4 1 0  0.45 1 0  0.5 1 0  0.55 1 0  0.6 1 0  0.65 1 0  0.7 1 0  0.75 1 0  0.8 1 0  0.85 1 0  0.9 1 0  0.95 1 0  1 1 0  </DataArray>
</Points>
<Cells>
<DataArray  type="UInt32"  Name="connectivity"  format="ascii">0 1 22  0 21 22  1 2 23  1 22 23  2 3 24  2 23 24  3 4 25  3 24 25  4 5 26  4 25 26  5 6 27  5 26 27  6 7 28  6 27 28  7 8 29  7 28 29  8 9 30  8 29 30  9 10 31  9 30 31  10 11 32  10 31 32  11 12 33  11 32 33  12 13 34  12 33 34  13 14 35  13 34 35  14 15 36  14 35 36  15 16 37  15 36 37  16 17 38  16 37 38  17 18 39  17 38 39  18 19 40  18 39 40  19 20 41  19 40 41  21 22 43  21 42 43  22 23 44  22 43 44  23 24 45  23 44 45  24 25 46  24 45 46  25 26 47  25 46 47  26 27 48  26 47 48  27 28 49  27 48 49  28 29 50  28 49 50  29 30 51  29 50 51  30 31 52  30 51 52  31 32 53  31 52 53  32 33 54  32 53 54  33 34 55  33 54 55  34 35 56  34 55 56  35 36 57  35 56 57  36 37 58  36 57 58  37 38 59  37 58 59  38 39 60  38 59 60  39 40 61  39 60 61  40 41 62  40 61 62  42 43 64  42 63 64  43 44 65  43 64 65  44 45 66  44 65 66  45 46 67  45 66 67  46 47 68  46 67 68  47 48 69  47 68 69  48 49 70  48 69 70  49 50 71  49 70 71  50 51 72  50 71 72  51 52 73  51 72 73  52 53 74  52 73 74  53 54 75  53 74 75  54 55 76  54 75 76  55 56 77  55 76 77  56 57 78  56 77 78  57 58 79  57 78 79  58 59 80  58 79 80  59 60 81  59 80 81  60 61 82  60 81 82  61 62 83  61 82 83  63 64 85  63 84 85  64 65 86  64 85 86  65 66 87  65 86 87  66 67 88  66 87 88  67 68 89  67 88 89  68 69 90  68 89 90  69 70 91  69 90 91  70 71 92  70 91 92  71 72 93  71 92 93  72 73 94  72 93 94  73 74 95  73 94 95  74 75 96  74 95 96  75 76 97  75 96 97  76 77 98  76 97 98  77 78 99  77 98 99  78 79 100  78 99 100  79 80 101  79 100 101  80 81 102  80 101 102  81 82 103  81 102 103  82 83 104  82 103 104  84 85 106  84 105 106  85 86 107  85 106 107  86 87 108  86 107 108  87 88 109  87 108 109  88 89 110  88 109 110  89 90 111  89 110 111  90 91 112  90 111 112  91 92 113  91 112 113  92 93 114  92 113 114  93 94 115  93 114 115  94 95 116  94 115 116  95 96 117  95 116 117  96 97 118  96 117 118  97 98 119  97 118 119  98 99 120  98 119 120  99 100 121  99 120 121  100 101 122  100 121 122  101 102 123  101 122 123  102 103 124  102 123 124  103 104 125  103 124 125  105 106 127  105 126 127  106 107 128  106 127 128  107 108 129  107 128 129  108 109 130  108 129 130  109 110 131  109 130 131  110 111 132  110 131 132  111 112 133  111 132 133  112 113 134  112 133 134  113 114 135  113 134 135  114 115 136  114 135 136  115 116 137  115 136 137  116 117 138  116 137 138  117 118 139  117 138 139  118 119 140  118 139 140  119 120 141  119 140 141  120 121 142  120 141 142  121 122 143  121 142 143  122 123 144  122 143 144  123 124 145  123 144 145  124 125 146  124 145 146  126 127 148  126 147 148  127 128 149  127 148 149  128 129 150  128 149 150  129 130 151  129 150 151  130 131 152  130 151 152  131 132 153  131 152 153  132 133 154  132 153 154  133 134 155  133 154 155  134 135 156  134 155 156  135 136 157  135 156 157  136 137 158  136 157 158  137 138 159  137 158 159  138 139 160  138 159 160  139 140 161  139 160 161  140 141 162  140 161 162  141 142 163  141 162 163  142 143 164  142 163 164  143 144 165  143 164 165  144 145 166  144 165 166  145 146 167  145 166 167  147 148 169  147 168 169  148 149 170  148 169 170  149 150 171  149 170 171  150 151 172  150 171 172  151 152 173  151 172 173  152 153 174  152 173 174  153 154 175  153 174 175  154 155 176  154 175 176  155 156 177  155 176 177  156 157 178  156 177 178  157 158 179  157 178 179  158 159 180  158 179 180  159 160 181  159 180 181  160 161 182  160 181 182  161 162 183  161 182 183  162 163 184  162 183 184  163 164 185  163 184 185  164 165 186  164 185 186  165 166 187  165 186 187  166 167 188  166 187 188  168 169 190  168 189 190  169 170 191  169 190 191  170 171 192  170 191 192  171 172 193  171 192 193  172 173 194  172 193 194  173 174 195  173 194 195  174 175 196  174 195 196  175 176 197  175 196 197  176 177 198  176 197 198  177 178 199  177 198 199  178 179 200  178 199 200  179 180 201  179 200 201  180 181 202  180 201 202  181 182 203  181 202 203  182 183 204  182 203 204  183 184 205  183 204 205  184 185 206  184 205 206  185 186 207  185 206 207  186 187 208  186 207 208  187 188 209  187 208 209  189 190 211  189 210 211  190 191 212  190 211 212  191 192 213  191 212 213  192 193 214  192 213 214  193 194 215  193 214 215  194 195 216  194 215 216  195 196 217  195 216 217  196 197 218  196 217 218  197 198 219  197 218 219  198 199 220  198 219 220  199 200 221  199 220 221  200 201 222  200 221 222  201 202 223  201 222 223  202 203 224  202 223 224  203 204 225  203 224 225  204 205 226  204 225 226  205 206 227  205 226 227  206 207 228  206 227 228  207 208 229  207 228 229  208 209 230  208 229 230  210 211 232  210 231 232  211 212 233  211 232 233  212 213 234  212 233 234  213 214 235  213 234 235  214 215 236  214 235 236  215 216 237  215 236 237  216 217 238  216 237 238  217 218 239  217 238 239  218 219 240  218 239 240  219 220 241  219 240 241  220 221 242  220 241 242  221 222 243  221 242 243  222 223 244  222 243 244  223 224 245  223 244 245  224 225 246  224 245 246  225 226 247  225 246 247  226 227 248  226 247 248  227 228 249  227 248 249  228 229 250  228 249 250  229 230 251  229 250 251  231 232 253  231 252 253  232 233 254  232 253 254  233 234 255  233 254 255  234 235 256  234 255 256  235 236 257  235 256 257  236 237 258  236 257 258  237 238 259  237 258 259  238 239 260  238 259 260  239 240 261  239 260 261  240 241 262  240 261 262  241 242 263  241 262 263  242 243 264  242 263 264  243 244 265  243 264 265  244 245 266  244 265 266  245 246 267  245 266 267  246 247 268  246 267 268  247 248 269  247 268 269  248 249 270  248 269 270  249 250 271  249 270 271  250 251 272  250 271 272  252 253 274  252 273 274  253 254 275  253 274 275  254 255 276  254 275 276  255 256 277  255 276 277  256 257 278  256 277 278  257 258 279  257 278 279  258 259 280  258 279 280  259 260 281  259 280 281  260 261 282  260 281 282  261 262 283  261 282 283  262 263 284  262 283 284  263 264 285  263 284 285  264 265 286  264 285 286  265 266 287  265 286 287  266 267 288  266 287 288  267 268 289  267 288 289  268 269 290  268 289 290  269 270 291  269 290 291  270 271 292  270 291 292  271 272 293  271 292 293  273 274 295  273 294 295  274 275 296  274 295 296  275 276 297  275 296 297  276 277 298  276 297 298  277 278 299  277 298 299  278 279 300  278 299 300  279 280 301  279 300 301  280 281 302  280 301 302  281 282 303  281 302 303  282 283 304  282 303 304  283 284 305  283 304 305  284 285 306  284 305 306  285 286 307  285 306 307  286 287 308  286 307 308  287 288 309  287 308 309  288 289 310  288 309 310  289 290 311  289 310 311  290 291 312  290 311 312  291 292 313  291 312 313  292 293 314  292 313 314  294 295 316  294 315 316  295 296 317  295 316 317  296 297 318  296 317 318  297 298 319  297 318 319  298 299 320  298 319 320  299 300 321  299 320 321  300 301 322  300 321 322  301 302 323  301 322 323  302 303 324  302 323 324  303 304 325  303 324 325  304 305 326  304 325 326  305 306 327  305 326 327  306 307 328  306 327 328  307 308 329  307 328 329  308 309 330  308 329 330  309 310 331  309 330 331  310 311 332  310 331 332  311 312 333  311 332 333  312 313 334  312 333 334  313 314 335  313 334 335  315 316 337  315 336 337  316 317 338  316 337 338  317 318 339  317 338 339  318 319 340  318 339 340  319 320 341  319 340 341  320 321 342  320 341 342  321 322 343  321 342 343  322 323 344  322 343 344  323 324 345  323 344 345  324 325 346  324 345 346  325 326 347  325 346 347  326 327 348  326 347 348  327 328 349  327 348 349  328 329 350  328 349 350  329 330 351  329 350 351  330 331 352  330 351 352  331 332 353  331 352 353  332 333 354  332 353 354  333 334 355  333 354 355  334 335 356  334 355 356  336 337 358  336 357 358  337 338 359  337 358 359  338 339 360  338 359 360  339 340 361  339 360 361  340 341 362  340 361 362  341 342 363  341 362 363  342 343 364  342 363 364  343 344 365  343 364 365  344 345 366  344 365 366  345 346 367  345 366 367  346 347 368  346 367 368  347 348 369  347 368 369  348 349 370  348 369 370  349 350 371  349 370 371  350 351 372  350 371 372  351 352 373  351 372 373  352 353 374  352 373 374  353 354 375  353 374 375  354 355 376  354 375 376  355 356 377  355 376 377  357 358 379  357 378 379  358 359 380  358 379 380  359 360 381  359 380 381  360 361 382  360 381 382  361 362 383  361 382 383  362 363 384  362 383 384  363 364 385  363 384 385  364 365 386  364 385 386  365 366 387  365 386 387  366 367 388  366 387 388  367 368 389  367 388 389  368 369 390  368 389 390  369 370 391  369 390 391  370 371 392  370 391 392  371 372 393  371 392 393  372 373 394  372 393 394  373 374 395  373 394 395  374 375 396  374 395 396  375 376 397  375 396 397  376 377 398  376 397 398  378 379 400  378 399 400  379 380 401  379 400 401  380 381 402  380 401 402  381 382 403  381 402 403  382 383 404  382 403 404  383 384 405  383 404 405  384 385 406  384 405 406  385 386 407  385 406 407  386 387 408  386 407 408  387 388 409  387 408 409  388 389 410  388 409 410  389 390 411  389 410 411  390 391 412  390 411 412  391 392 413  391 412 413  392 393 414  392 413 414  393 394 415  393 414 415  394 395 416  394 415 416  395 396 417  395 416 417  396 397 418  396 417 418  397 398 419  397 418 419  399 400 421  399 420 421  400 401 422  400 421 422  401 402 423  401 422 423  402 403 424  402 423 424  403 404 425  403 424 425  404 405 426  404 425 426  405 406 427  405 426 427  406 407 428  406 427 428  407 408 429  407 428 429  408 409 430  408 429 430  409 410 431  409 430 431  410 411 432  410 431 432  411 412 433  411 432 433  412 413 434  412 433 434  413 414 435  413 434 435  414 415 436  414 435 436  415 416 437  415 436 437  416 417 438  416 437 438  417 418 439  417 438 439  418 419 440  418 439 440  </DataArray>
<DataArray  type="UInt32"  Name="offsets"  format="ascii">3 6 9 12 15 18 21 24 27 30 33 36 39 42 45 48 51 54 57 60 63 66 69 72 75 78 81 84 87 90 93 96 99 102 105 108 111 114 117 120 123 126 129 132 135 138 141 144 147 150 153 156 159 162 165 168 171 174 177 180 183 186 189 192 195 198 201 204 207 210 213 216 219 222 225 228 231 234 237 240 243 246 249 252 255 258 261 264 267 270 273 276 279 282 285 288 291 294 297 300 303 306 309 312 315 318 321 324 327 330 333 336 339 342 345 348 351 354 357 360 363 366 369 372 375 378 381 384 387 390 393 396 399 402 405 408 411 414 417 420 423 426 429 432 435 438 441 444 447 450 453 456 459 462 465 468 471 474 477 480 483 486 489 492 495 498 501 504 507 510 513 516 519 522 525 528 531 534 537 540 543 546 549 552 555 558 561 564 567 570 573 576 579 582 585 588 591 594 597 600 603 606 609 612 615 618 621 624 627 630 633 636 639 642 645 648 651 654 657 660 663 666 669 672 675 678 681 684 687 690 693 696 699 702 705 708 711 714 717 720 723 726 729 732 735 738 741 744 747 750 753 756 759 762 765 768 771 774 777 780 783 786 789 792 795 798 801 804 807 810 813 816 819 822 825 828 831 834 837 840 843 846 849 852 855 858 861 864 867 870 873 876 879 882 885 888 891 894 897 900 903 906 909 912 915 918 921 924 927 930 933 936 939 942 945 948 951 954 957 960 963 966 969 972 975 978 981 984 987 990 993 996 999 1002 1005 1008 1011 1014 1017 1020 1023 1026 1029 1032 1035 1038 1041 1044 1047 1050 1053 1056 1059 1062 1065 1068 1071 1074 1077 1080 1083 1086 1089 1092 1095 1098 1101 1104 1107 1110 1113 1116 1119 1122 1125 1128 1131 1134 1137 1140 1143 1146 1149 1152 1155 1158 1161 1164 1167 1170 1173 1176 1179 1182 1185 1188 1191 1194 1197 1200 1203 1206 1209 1212 1215 1218 1221 1224 1227 1230 1233 1236 1239 1242 1245 1248 1251 1254 1257 1260 1263 1266 1269 1272 1275 1278 1281 1284 1287 1290 1293 1296 1299 1302 1305 1308 1311 1314 1317 1320 1323 1326 1329 1332 1335 1338 1341 1344 1347 1350 1353 1356 1359 1362 1365 1368 1371 1374 1377 1380 1383 1386 1389 1392 1395 1398 1401 1404 1407 1410 1413 1416 1419 1422 1425 1428 1431 1434 1437 1440 1443 1446 1449 1452 1455 1458 1461 1464 1467 1470 1473 1476 1479 1482 1485 1488 1491 1494 1497 1500 1503 1506 1509 1512 1515 1518 1521 1524 1527 1530 1533 1536 1539 1542 1545 1548 1551 1554 1557 1560 1563 1566 1569 1572 1575 1578 1581 1584 1587 1590 1593 1596 1599 1602 1605 1608 1611 1614 1617 1620 1623 1626 1629 1632 1635 1638 1641 1644 1647 1650 1653 1656 1659 1662 1665 1668 1671 1674 1677 1680 1683 1686 1689 1692 1695 1698 1701 1704 1707 1710 1713 1716 1719 1722 1725 1728 1731 1734 1737 1740 1743 1746 1749 1752 1755 1758 1761 1764 1767 1770 1773 1776 1779 1782 1785 1788 1791 1794 1797 1800 1803 1806 1809 1812 1815 1818 1821 1824 1827 1830 1833 1836 1839 1842 1845 1848 1851 1854 1857 1860 1863 1866 1869 1872 1875 1878 1881 1884 1887 1890 1893 1896 1899 1902 1905 1908 1911 1914 1917 1920 1923 1926 1929 1932 1935 1938 1941 1944 1947 1950 1953 1956 1959 1962 1965 1968 1971 1974 1977 1980 1983 1986 1989 1992 1995 1998 2001 2004 2007 2010 2013 2016 2019 2022 2025 2028 2031 2034 2037 2040 2043 2046 2049 2052 2055 2058 2061 2064 2067 2070 2073 2076 2079 2082 2085 2088 2091 2094 2097 2100 2103 2106 2109 2112 2115 2118 2121 2124 2127 2130 2133 2136 2139 2142 2145 2148 2151 2154 2157 2160 2163 2166 2169 2172 2175 2178 2181 2184 2187 2190 2193 2196 2199 2202 2205 2208 2211 2214 2217 2220 2223 2226 2229 2232 2235 2238 2241 2244 2247 2250 2253 2256 2259 2262 2265 2268 2271 2274 2277 2280 2283 2286 2289 2292 2295 2298 2301 2304 2307 2310 2313 2316 2319 2322 2325 2328 2331 2334 2337 2340 2343 2346 2349 2352 2355 2358 2361 2364 2367 2370 2373 2376 2379 2382 2385 2388 2391 2394 2397 2400 </DataArray>
<DataArray  type="UInt8"  Name="types"  format="ascii">5 5 5 5 5 5 5 5 5 5 5 5 5 5 5 5 5 5 5 5 5 5 5 5 5 5 5 5 5 5 5 5 5 5 5 5 5 5 5 5 5 5 5 5 5 5 5 5 5 5 5 5 5 5 5 5 5 5 5 5 5 5 5 5 5 5 5 5 5 5 5 5 5 5 5 5 5 5 5 5 5 5 5 5 5 5 5 5 5 5 5 5 5 5 5 5 5 5 5 5 5 5 5 5 5 5 5 5 5 5 5 5 5 5 5 5 5 5 5 5 5 5 5 5 5 5 5 5 5 5 5 5 5 5 5 5 5 5 5 5 5 5 5 5 5 5 5 5 5 5 5 5 5 5 5 5 5 5 5 5 5 5 5 5 5 5 5 5 5 5 5 5 5 5 5 5 5 5 5 5 5 5 5 5 5 5 5 5 5 5 5 5 5 5 5 5 5 5 5 5 5 5 5 5 5 5 5 5 5 5 5 5 5 5 5 5 5 5 5 5 5 5 5 5 5 5 5 5 5 5 5 5 5 5 5 5 5 5 5 5 5 5 5 5 5 5 5 5 5 5 5 5 5 5 5 5 5 5 5 5 5 5 5 5 5 5 5 5 5 5 5 5 5 5 5 5 5 5 5 5 5 5 5 5 5 5 5 5 5 5 5 5 5 5 5 5 5 5 5 5 5 5 5 5 5 5 5 5 5 5 5 5 5 5 5 5 5 5 5 5 5 5 5 5 5 5 5 5 5 5 5 5 5 5 5 5 5 5 5 5 5 5 5 5 5 5 5 5 5 5 5 5 5 5 5 5 5 5 5 5 5 5 5 5 5 5 5 5 5 5 5 5 5 5 5 5 5 5 5 5 5 5 5 5 5 5 5 5 5 5 5 5 5 5 5 5 5 5 5 5 5 5 5 5 5 5 5 5 5 5 5 5 5 5 5 5 5 5 5 5 5 5 5 5 5 5 5 5 5 5 5 5 5 5 5 5 5 5 5 5 5 5 5 5 5 5 5 5 5 5 5 5 5 5 5 5 5 5 5 5 5 5 5 5 5 5 5 5 5 5 5 5 5 5 5 5 5 5 5 5 5 5 5 5 5 5 5 5 5 5 5 5 5 5 5 5 5 5 5 5 5 5 5 5 5 5 5 5 5 5 5 5 5 5 5 5 5 5 5 5 5 5 5 5 5 5 5 5 5 5 5 5 5 5 5 5 5 5 5 5 5 5 5 5 5 5 5 5 5 5 5 5 5 5 5 5 5 5 5 5 5 5 5 5 5 5 5 5 5 5 5 5 5 5 5 5 5 5 5 5 5 5 5 5 5 5 5 5 5 5 5 5 5 5 5 5 5 5 5 5 5 5 5 5 5 5 5 5 5 5 5 5 5 5 5 5 5 5 5 5 5 5 5 5 5 5 5 5 5 5 5 5 5 5 5 5 5 5 5 5 5 5 5 5 5 5 5 5 5 5 5 5 5 5 5 5 5 5 5 5 5 5 5 5 5 5 5 5 5 5 5 5 5 5 5 5 5 5 5 5 5 5 5 5 5 5 5 5 5 5 5 5 5 5 5 5 5 5 5 5 5 5 5 5 5 5 5 5 5 5 5 5 5 5 5 5 5 5 5 5 5 5 5 5 5 5 5 5 5 5 5 5 5 5 5 5 5 5 5 5 5 5 5 5 5 5 5 5 5 5 5 5 5 5 5 5 5 5 5 5 5 5 5 5 5 5 5 5 5 5 5 5 5 5 5 5 5 5 5 5 5 5 5 5 5 5 5 5 5 5 5 5 5 5 5 5 5 5 5 5 </DataArray>
</Cells>
<PointData  Scalars="u"> 
<DataArray  type="Float32"  Name="u"  format="ascii">1.109685e-01  1.109677e-01  1.109652e-01  1.109608e-01  1.109545e-01  1.109462e-01  1.109361e-01  1.109245e-01  1.109118e-01  1.108986e-01  1.108855e-01  1.108729e-01  1.108615e-01  1.108516e-01  1.108434e-01  1.108371e-01  1.108325e-01  1.108295e-01  1.108276e-01  1.108267e-01  1.108265e-01  1.109693e-01  1.109686e-01  1.109661e-01  1.109618e-01  1.109555e-01  1.109471e-01  1.109369e-01  1.109251e-01  1.109122e-01  1.108987e-01  1.108853e-01  1.108725e-01  1.108609e-01  1.108509e-01  1.108427e-01  1.108364e-01  1.108319e-01  1.108289e-01  1.108273e-01  1.108265e-01  1.108263e-01  1.109718e-01  1.109711e-01  1.109688e-01  1.109645e-01  1.109581e-01  1.109495e-01  1.109389e-01  1.109266e-01  1.109131e-01  1.108989e-01  1.108848e-01  1.108715e-01  1.108594e-01  1.108490e-01  1.108407e-01  1.108344e-01  1.108301e-01  1.108275e-01  1.108261e-01  1.108256e-01  1.108255e-01  1.109757e-01  1.109751e-01  1.109729e-01  1.109687e-01  1.109622e-01  1.109532e-01  1.109421e-01  1.109290e-01  1.109145e-01  1.108993e-01  1.108842e-01  1.108699e-01  1.108571e-01  1.108463e-01  1.108377e-01  1.108315e-01  1.108275e-01  1.108252e-01  1.108243e-01  1.108242e-01  1.108242e-01  1.109809e-01  1.109803e-01  1.109782e-01  1.109740e-01  1.109673e-01  1.109579e-01  1.109460e-01  1.109319e-01  1.109163e-01  1.108998e-01  1.108835e-01  1.108681e-01  1.108544e-01  1.108429e-01  1.108341e-01  1.108279e-01  1.108241e-01  1.108223e-01  1.108219e-01  1.108222e-01  1.108224e-01  1.109870e-01  1.109865e-01  1.109845e-01  1.109803e-01  1.109733e-01  1.109634e-01  1.109506e-01  1.109354e-01  1.109184e-01  1.109005e-01  1.108827e-01  1.108660e-01  1.108512e-01  1.108391e-01  1.108299e-01  1.108236e-01  1.108202e-01  1.108189e-01  1.108190e-01  1.108196e-01  1.108200e-01  1.109940e-01  1.109935e-01  1.109916e-01  1.109873e-01  1.109800e-01  1.109695e-01  1.109557e-01  1.109392e-01  1.109207e-01  1.109013e-01  1.108819e-01  1.108638e-01  1.108478e-01  1.108349e-01  1.108252e-01  1.108190e-01  1.108158e-01  1.108149e-01  1.108156e-01  1.108167e-01  1.108172e-01  1.110015e-01  1.110012e-01  1.109993e-01  1.109949e-01  1.109873e-01  1.109761e-01  1.109613e-01  1.109434e-01  1.109233e-01  1.109021e-01  1.108811e-01  1.108614e-01  1.108442e-01  1.108304e-01  1.108203e-01  1.108140e-01  1.108110e-01  1.108106e-01  1.108118e-01  1.108134e-01  1.108141e-01  1.110096e-01  1.110093e-01  1.110075e-01  1.110030e-01  1.109949e-01  1.109830e-01  1.109671e-01  1.109478e-01  1.109260e-01  1.109030e-01  1.108802e-01  1.108590e-01  1.108405e-01  1.108257e-01  1.108152e-01  1.108087e-01  1.108060e-01  1.108061e-01  1.108078e-01  1.108098e-01  1.108107e-01  1.110180e-01  1.110177e-01  1.110159e-01  1.110113e-01  1.110028e-01  1.109901e-01  1.109731e-01  1.109523e-01  1.109288e-01  1.109040e-01  1.108794e-01  1.108565e-01  1.108367e-01  1.108210e-01  1.108099e-01  1.108033e-01  1.108008e-01  1.108014e-01  1.108036e-01  1.108061e-01  1.108072e-01  1.110265e-01  1.110263e-01  1.110245e-01  1.110197e-01  1.110109e-01  1.109973e-01  1.109791e-01  1.109569e-01  1.109317e-01  1.109050e-01  1.108786e-01  1.108540e-01  1.108329e-01  1.108162e-01  1.108045e-01  1.107978e-01  1.107956e-01  1.107966e-01  1.107994e-01  1.108022e-01  1.108035e-01  1.110350e-01  1.110348e-01  1.110331e-01  1.110282e-01  1.110189e-01  1.110046e-01  1.109852e-01  1.109615e-01  1.109345e-01  1.109060e-01  1.108778e-01  1.108516e-01  1.108290e-01  1.108114e-01  1.107992e-01  1.107924e-01  1.107903e-01  1.107918e-01  1.107951e-01  1.107984e-01  1.107999e-01  1.110433e-01  1.110432e-01  1.110415e-01  1.110365e-01  1.110268e-01  1.110117e-01  1.109912e-01  1.109660e-01  1.109374e-01  1.109070e-01  1.108769e-01  1.108491e-01  1.108252e-01  1.108066e-01  1.107939e-01  1.107870e-01  1.107851e-01  1.107871e-01  1.107909e-01  1.107947e-01  1.107963e-01  1.110514e-01  1.110513e-01  1.110496e-01  1.110445e-01  1.110344e-01  1.110186e-01  1.109970e-01  1.109704e-01  1.109401e-01  1.109080e-01  1.108761e-01  1.108467e-01  1.108215e-01  1.108020e-01  1.107887e-01  1.107817e-01  1.107801e-01  1.107825e-01  1.107869e-01  1.107911e-01  1.107929e-01  1.110589e-01  1.110589e-01  1.110573e-01  1.110521e-01  1.110416e-01  1.110251e-01  1.110025e-01  1.109746e-01  1.109427e-01  1.109088e-01  1.108753e-01  1.108444e-01  1.108180e-01  1.107975e-01  1.107838e-01  1.107767e-01  1.107754e-01  1.107782e-01  1.107831e-01  1.107878e-01  1.107898e-01  1.110658e-01  1.110659e-01  1.110644e-01  1.110591e-01  1.110484e-01  1.110312e-01  1.110077e-01  1.109784e-01  1.109451e-01  1.109096e-01  1.108745e-01  1.108422e-01  1.108146e-01  1.107933e-01  1.107792e-01  1.107720e-01  1.107709e-01  1.107742e-01  1.107797e-01  1.107848e-01  1.107870e-01  1.110719e-01  1.110720e-01  1.110706e-01  1.110653e-01  1.110544e-01  1.110367e-01  1.110123e-01  1.109819e-01  1.109472e-01  1.109104e-01  1.108738e-01  1.108401e-01  1.108115e-01  1.107895e-01  1.107749e-01  1.107678e-01  1.107670e-01  1.107707e-01  1.107767e-01  1.107822e-01  1.107846e-01  1.110769e-01  1.110771e-01  1.110759e-01  1.110706e-01  1.110595e-01  1.110414e-01  1.110163e-01  1.109850e-01  1.109491e-01  1.109110e-01  1.108732e-01  1.108383e-01  1.108088e-01  1.107861e-01  1.107713e-01  1.107641e-01  1.107635e-01  1.107678e-01  1.107742e-01  1.107801e-01  1.107827e-01  1.110807e-01  1.110810e-01  1.110799e-01  1.110747e-01  1.110635e-01  1.110451e-01  1.110195e-01  1.109874e-01  1.109506e-01  1.109115e-01  1.108727e-01  1.108369e-01  1.108066e-01  1.107834e-01  1.107683e-01  1.107611e-01  1.107608e-01  1.107654e-01  1.107723e-01  1.107786e-01  1.107814e-01  1.110830e-01  1.110834e-01  1.110824e-01  1.110773e-01  1.110661e-01  1.110476e-01  1.110216e-01  1.109891e-01  1.109517e-01  1.109119e-01  1.108724e-01  1.108360e-01  1.108051e-01  1.107816e-01  1.107663e-01  1.107591e-01  1.107590e-01  1.107638e-01  1.107711e-01  1.107777e-01  1.107807e-01  1.110836e-01  1.110840e-01  1.110832e-01  1.110782e-01  1.110671e-01  1.110486e-01  1.110225e-01  1.109898e-01  1.109523e-01  1.109122e-01  1.108724e-01  1.108357e-01  1.108046e-01  1.107809e-01  1.107655e-01  1.107583e-01  1.107581e-01  1.107631e-01  1.107705e-01  1.107774e-01  1.107807e-01  </DataArray> 
</PointData> 
</Piece>
</UnstructuredGrid>
</VTKFile>