<?xml version="1.0"?>
<VTKFile type="UnstructuredGrid"  version="0.1"  >
<UnstructuredGrid>
<Piece  NumberOfPoints="10201" NumberOfCells="20000">
<Points>
<DataArray  type="Float32"  NumberOfComponents="3"  format="ascii">0 0 0  0.01 0 0  0.02 0 0  0.03 0 0  0.04 0 0  0.05 0 0  0.06 0 0  0.07 0 0  0.08 0 0  0.09 0 0  0.1 0 0  0.11 0 0  0.12 0 0  0.13 0 0  0.14 0 0  0.15 0 0  0.16 0 0  0.17 0 0  0.18 0 0  0.19 0 0  0.2 0 0  0.21 0 0  0.22 0 0  0.23 0 0  0.24 0 0  0.25 0 0  0.26 0 0  0.27 0 0  0.28 0 0  0.29 0 0  0.3 0 0  0.31 0 0  0.32 0 0  0.33 0 0  0.34 0 0  0.35 0 0  0.36 0 0  0.37 0 0  0.38 0 0  0.39 0 0  0.4 0 0  0.41 0 0  0.42 0 0  0.43 0 0  0.44 0 0  0.45 0 0  0.46 0 0  0.47 0 0  0.48 0 0  0.49 0 0  0.5 0 0  0.51 0 0  0.52 0 0  0.53 0 0  0.54 0 0  0.55 0 0  0.56 0 0  0.57 0 0  0.58 0 0  0.59 0 0  0.6 0 0  0.61 0 0  0.62 0 0  0.63 0 0  0.64 0 0  0.65 0 0  0.66 0 0  0.67 0 0  0.68 0 0  0.69 0 0  0.7 0 0  0.71 0 0  0.72 0 0  0.73 0 0  0.74 0 0  0.75 0 0  0.76 0 0  0.77 0 0  0.78 0 0  0.79 0 0  0.8 0 0  0.81 0 0  0.82 0 0  0.83 0 0  0.84 0 0  0.85 0 0  0.86 0 0  0.87 0 0  0.88 0 0  0.89 0 0  0.9 0 0  0.91 0 0  0.92 0 0  0.93 0 0  0.94 0 0  0.95 0 0  0.96 0 0  0.97 0 0  0.98 0 0  0.99 0 0  1 0 0  0 0.01 0  0.01 0.01 0  0.02 0.01 0  0.03 0.01 0  0.04 0.01 0  0.05 0.01 0  0.06 0.01 0  0.07 0.01 0  0.08 0.01 0  0.09 0.01 0  0.1 0.01 0  0.11 0.01 0  0.12 0.01 0  0.13 0.01 0  0.14 0.01 0  0.15 0.01 0  0.16 0.01 0  0.17 0.01 0  0.18 0.01 0  0.19 0.01 0  0.2 0.01 0  0.21 0.01 0  0.22 0.01 0  0.23 0.01 0  0.24 0.01 0  0.25 0.01 0  0.26 0.01 0  0.27 0.01 0  0.28 0.01 0  0.29 0.01 0  0.3 0.01 0  0.31 0.01 0  0.32 0.01 0  0.33 0.01 0  0.34 0.01 0  0.35 0.01 0  0.36 0.01 0  0.37 0.01 0  0.38 0.01 0  0.39 0.01 0  0.4 0.01 0  0.41 0.01 0  0.42 0.01 0  0.43 0.01 0  0.44 0.01 0  0.45 0.01 0  0.46 0.01 0  0.47 0.01 0  0.48 0.01 0  0.49 0.01 0  0.5 0.01 0  0.51 0.01 0  0.52 0.01 0  0.53 0.01 0  0.54 0.01 0  0.55 0.01 0  0.56 0.01 0  0.57 0.01 0  0.58 0.01 0  0.59 0.01 0  0.6 0.01 0  0.61 0.01 0  0.62 0.01 0  0.63 0.01 0  0.64 0.01 0  0.65 0.01 0  0.66 0.01 0  0.67 0.01 0  0.68 0.01 0  0.69 0.01 0  0.7 0.01 0  0.71 0.01 0  0.72 0.01 0  0.73 0.01 0  0.74 0.01 0  0.75 0.01 0  0.76 0.01 0  0.77 0.01 0  0.78 0.01 0  0.79 0.01 0  0.8 0.01 0  0.81 0.01 0  0.82 0.01 0  0.83 0.01 0  0.84 0.01 0  0.85 0.01 0  0.86 0.01 0  0.87 0.01 0  0.88 0.01 0  0.89 0.01 0  0.9 0.01 0  0.91 0.01 0  0.92 0.01 0  0.93 0.01 0  0.94 0.01 0  0.95 0.01 0  0.96 0.01 0  0.97 0.01 0  0.98 0.01 0  0.99 0.01 0  1 0.01 0  0 0.02 0  0.01 0.02 0  0.02 0.02 0  0.03 0.02 0  0.04 0.02 0  0.05 0.02 0  0.06 0.02 0  0.07 0.02 0  0.08 0.02 0  0.09 0.02 0  0.1 0.02 0  0.11 0.02 0  0.12 0.02 0  0.13 0.02 0  0.14 0.02 0  0.15 0.02 0  0.16 0.02 0  0.17 0.02 0  0.18 0.02 0  0.19 0.02 0  0.2 0.02 0  0.21 0.02 0  0.22 0.02 0  0.23 0.02 0  0.24 0.02 0  0.25 0.02 0  0.26 0.02 0  0.27 0.02 0  0.28 0.02 0  0.29 0.02 0  0.3 0.02 0  0.31 0.02 0  0.32 0.02 0  0.33 0.02 0  0.34 0.02 0  0.35 0.02 0  0.36 0.02 0  0.37 0.02 0  0.38 0.02 0  0.39 0.02 0  0.4 0.02 0  0.41 0.02 0  0.42 0.02 0  0.43 0.02 0  0.44 0.02 0  0.45 0.02 0  0.46 0.02 0  0.47 0.02 0  0.48 0.02 0  0.49 0.02 0  0.5 0.02 0  0.51 0.02 0  0.52 0.02 0  0.53 0.02 0  0.54 0.02 0  0.55 0.02 0  0.56 0.02 0  0.57 0.02 0  0.58 0.02 0  0.59 0.02 0  0.6 0.02 0  0.61 0.02 0  0.62 0.02 0  0.63 0.02 0  0.64 0.02 0  0.65 0.02 0  0.66 0.02 0  0.67 0.02 0  0.68 0.02 0  0.69 0.02 0  0.7 0.02 0  0.71 0.02 0  0.72 0.02 0  0.73 0.02 0  0.74 0.02 0  0.75 0.02 0  0.76 0.02 0  0.77 0.02 0  0.78 0.02 0  0.79 0.02 0  0.8 0.02 0  0.81 0.02 0  0.82 0.02 0  0.83 0.02 0  0.84 0.02 0  0.85 0.02 0  0.86 0.02 0  0.87 0.02 0  0.88 0.02 0  0.89 0.02 0  0.9 0.02 0  0.91 0.02 0  0.92 0.02 0  0.93 0.02 0  0.94 0.02 0  0.95 0.02 0  0.96 0.02 0  0.97 0.02 0  0.98 0.02 0  0.99 0.02 0  1 0.02 0  0 0.03 0  0.01 0.03 0  0.02 0.03 0  0.03 0.03 0  0.04 0.03 0  0.05 0.03 0  0.06 0.03 0  0.07 0.03 0  0.08 0.03 0  0.09 0.03 0  0.1 0.03 0  0.11 0.03 0  0.12 0.03 0  0.13 0.03 0  0.14 0.03 0  0.15 0.03 0  0.16 0.03 0  0.17 0.03 0  0.18 0.03 0  0.19 0.03 0  0.2 0.03 0  0.21 0.03 0  0.22 0.03 0  0.23 0.03 0  0.24 0.03 0  0.25 0.03 0  0.26 0.03 0  0.27 0.03 0  0.28 0.03 0  0.29 0.03 0  0.3 0.03 0  0.31 0.03 0  0.32 0.03 0  0.33 0.03 0  0.34 0.03 0  0.35 0.03 0  0.36 0.03 0  0.37 0.03 0  0.38 0.03 0  0.39 0.03 0  0.4 0.03 0  0.41 0.03 0  0.42 0.03 0  0.43 0.03 0  0.44 0.03 0  0.45 0.03 0  0.46 0.03 0  0.47 0.03 0  0.48 0.03 0  0.49 0.03 0  0.5 0.03 0  0.51 0.03 0  0.52 0.03 0  0.53 0.03 0  0.54 0.03 0  0.55 0.03 0  0.56 0.03 0  0.57 0.03 0  0.58 0.03 0  0.59 0.03 0  0.6 0.03 0  0.61 0.03 0  0.62 0.03 0  0.63 0.03 0  0.64 0.03 0  0.65 0.03 0  0.66 0.03 0  0.67 0.03 0  0.68 0.03 0  0.69 0.03 0  0.7 0.03 0  0.71 0.03 0  0.72 0.03 0  0.73 0.03 0  0.74 0.03 0  0.75 0.03 0  0.76 0.03 0  0.77 0.03 0  0.78 0.03 0  0.79 0.03 0  0.8 0.03 0  0.81 0.03 0  0.82 0.03 0  0.83 0.03 0  0.84 0.03 0  0.85 0.03 0  0.86 0.03 0  0.87 0.03 0  0.88 0.03 0  0.89 0.03 0  0.9 0.03 0  0.91 0.03 0  0.92 0.03 0  0.93 0.03 0  0.94 0.03 0  0.95 0.03 0  0.96 0.03 0  0.97 0.03 0  0.98 0.03 0  0.99 0.03 0  1 0.03 0  0 0.04 0  0.01 0.04 0  0.02 0.04 0  0.03 0.04 0  0.04 0.04 0  0.05 0.04 0  0.06 0.04 0  0.07 0.04 0  0.08 0.04 0  0.09 0.04 0  0.1 0.04 0  0.11 0.04 0  0.12 0.04 0  0.13 0.04 0  0.14 0.04 0  0.15 0.04 0  0.16 0.04 0  0.17 0.04 0  0.18 0.04 0  0.19 0.04 0  0.2 0.04 0  0.21 0.04 0  0.22 0.04 0  0.23 0.04 0  0.24 0.04 0  0.25 0.04 0  0.26 0.04 0  0.27 0.04 0  0.28 0.04 0  0.29 0.04 0  0.3 0.04 0  0.31 0.04 0  0.32 0.04 0  0.33 0.04 0  0.34 0.04 0  0.35 0.04 0  0.36 0.04 0  0.37 0.04 0  0.38 0.04 0  0.39 0.04 0  0.4 0.04 0  0.41 0.04 0  0.42 0.04 0  0.43 0.04 0  0.44 0.04 0  0.45 0.04 0  0.46 0.04 0  0.47 0.04 0  0.48 0.04 0  0.49 0.04 0  0.5 0.04 0  0.51 0.04 0  0.52 0.04 0  0.53 0.04 0  0.54 0.04 0  0.55 0.04 0  0.56 0.04 0  0.57 0.04 0  0.58 0.04 0  0.59 0.04 0  0.6 0.04 0  0.61 0.04 0  0.62 0.04 0  0.63 0.04 0  0.64 0.04 0  0.65 0.04 0  0.66 0.04 0  0.67 0.04 0  0.68 0.04 0  0.69 0.04 0  0.7 0.04 0  0.71 0.04 0  0.72 0.04 0  0.73 0.04 0  0.74 0.04 0  0.75 0.04 0  0.76 0.04 0  0.77 0.04 0  0.78 0.04 0  0.79 0.04 0  0.8 0.04 0  0.81 0.04 0  0.82 0.04 0  0.83 0.04 0  0.84 0.04 0  0.85 0.04 0  0.86 0.04 0  0.87 0.04 0  0.88 0.04 0  0.89 0.04 0  0.9 0.04 0  0.91 0.04 0  0.92 0.04 0  0.93 0.04 0  0.94 0.04 0  0.95 0.04 0  0.96 0.04 0  0.97 0.04 0  0.98 0.04 0  0.99 0.04 0  1 0.04 0  0 0.05 0  0.01 0.05 0  0.02 0.05 0  0.03 0.05 0  0.04 0.05 0  0.05 0.05 0  0.06 0.05 0  0.07 0.05 0  0.08 0.05 0  0.09 0.05 0  0.1 0.05 0  0.11 0.05 0  0.12 0.05 0  0.13 0.05 0  0.14 0.05 0  0.15 0.05 0  0.16 0.05 0  0.17 0.05 0  0.18 0.05 0  0.19 0.05 0  0.2 0.05 0  0.21 0.05 0  0.22 0.05 0  0.23 0.05 0  0.24 0.05 0  0.25 0.05 0  0.26 0.05 0  0.27 0.05 0  0.28 0.05 0  0.29 0.05 0  0.3 0.05 0  0.31 0.05 0  0.32 0.05 0  0.33 0.05 0  0.34 0.05 0  0.35 0.05 0  0.36 0.05 0  0.37 0.05 0  0.38 0.05 0  0.39 0.05 0  0.4 0.05 0  0.41 0.05 0  0.42 0.05 0  0.43 0.05 0  0.44 0.05 0  0.45 0.05 0  0.46 0.05 0  0.47 0.05 0  0.48 0.05 0  0.49 0.05 0  0.5 0.05 0  0.51 0.05 0  0.52 0.05 0  0.53 0.05 0  0.54 0.05 0  0.55 0.05 0  0.56 0.05 0  0.57 0.05 0  0.58 0.05 0  0.59 0.05 0  0.6 0.05 0  0.61 0.05 0  0.62 0.05 0  0.63 0.05 0  0.64 0.05 0  0.65 0.05 0  0.66 0.05 0  0.67 0.05 0  0.68 0.05 0  0.69 0.05 0  0.7 0.05 0  0.71 0.05 0  0.72 0.05 0  0.73 0.05 0  0.74 0.05 0  0.75 0.05 0  0.76 0.05 0  0.77 0.05 0  0.78 0.05 0  0.79 0.05 0  0.8 0.05 0  0.81 0.05 0  0.82 0.05 0  0.83 0.05 0  0.84 0.05 0  0.85 0.05 0  0.86 0.05 0  0.87 0.05 0  0.88 0.05 0  0.89 0.05 0  0.9 0.05 0  0.91 0.05 0  0.92 0.05 0  0.93 0.05 0  0.94 0.05 0  0.95 0.05 0  0.96 0.05 0  0.97 0.05 0  0.98 0.05 0  0.99 0.05 0  1 0.05 0  0 0.06 0  0.01 0.06 0  0.02 0.06 0  0.03 0.06 0  0.04 0.06 0  0.05 0.06 0  0.06 0.06 0  0.07 0.06 0  0.08 0.06 0  0.09 0.06 0  0.1 0.06 0  0.11 0.06 0  0.12 0.06 0  0.13 0.06 0  0.14 0.06 0  0.15 0.06 0  0.16 0.06 0  0.17 0.06 0  0.18 0.06 0  0.19 0.06 0  0.2 0.06 0  0.21 0.06 0  0.22 0.06 0  0.23 0.06 0  0.24 0.06 0  0.25 0.06 0  0.26 0.06 0  0.27 0.06 0  0.28 0.06 0  0.29 0.06 0  0.3 0.06 0  0.31 0.06 0  0.32 0.06 0  0.33 0.06 0  0.34 0.06 0  0.35 0.06 0  0.36 0.06 0  0.37 0.06 0  0.38 0.06 0  0.39 0.06 0  0.4 0.06 0  0.41 0.06 0  0.42 0.06 0  0.43 0.06 0  0.44 0.06 0  0.45 0.06 0  0.46 0.06 0  0.47 0.06 0  0.48 0.06 0  0.49 0.06 0  0.5 0.06 0  0.51 0.06 0  0.52 0.06 0  0.53 0.06 0  0.54 0.06 0  0.55 0.06 0  0.56 0.06 0  0.57 0.06 0  0.58 0.06 0  0.59 0.06 0  0.6 0.06 0  0.61 0.06 0  0.62 0.06 0  0.63 0.06 0  0.64 0.06 0  0.65 0.06 0  0.66 0.06 0  0.67 0.06 0  0.68 0.06 0  0.69 0.06 0  0.7 0.06 0  0.71 0.06 0  0.72 0.06 0  0.73 0.06 0  0.74 0.06 0  0.75 0.06 0  0.76 0.06 0  0.77 0.06 0  0.78 0.06 0  0.79 0.06 0  0.8 0.06 0  0.81 0.06 0  0.82 0.06 0  0.83 0.06 0  0.84 0.06 0  0.85 0.06 0  0.86 0.06 0  0.87 0.06 0  0.88 0.06 0  0.89 0.06 0  0.9 0.06 0  0.91 0.06 0  0.92 0.06 0  0.93 0.06 0  0.94 0.06 0  0.95 0.06 0  0.96 0.06 0  0.97 0.06 0  0.98 0.06 0  0.99 0.06 0  1 0.06 0  0 0.07 0  0.01 0.07 0  0.02 0.07 0  0.03 0.07 0  0.04 0.07 0  0.05 0.07 0  0.06 0.07 0  0.07 0.07 0  0.08 0.07 0  0.09 0.07 0  0.1 0.07 0  0.11 0.07 0  0.12 0.07 0  0.13 0.07 0  0.14 0.07 0  0.15 0.07 0  0.16 0.07 0  0.17 0.07 0  0.18 0.07 0  0.19 0.07 0  0.2 0.07 0  0.21 0.07 0  0.22 0.07 0  0.23 0.07 0  0.24 0.07 0  0.25 0.07 0  0.26 0.07 0  0.27 0.07 0  0.28 0.07 0  0.29 0.07 0  0.3 0.07 0  0.31 0.07 0  0.32 0.07 0  0.33 0.07 0  0.34 0.07 0  0.35 0.07 0  0.36 0.07 0  0.37 0.07 0  0.38 0.07 0  0.39 0.07 0  0.4 0.07 0  0.41 0.07 0  0.42 0.07 0  0.43 0.07 0  0.44 0.07 0  0.45 0.07 0  0.46 0.07 0  0.47 0.07 0  0.48 0.07 0  0.49 0.07 0  0.5 0.07 0  0.51 0.07 0  0.52 0.07 0  0.53 0.07 0  0.54 0.07 0  0.55 0.07 0  0.56 0.07 0  0.57 0.07 0  0.58 0.07 0  0.59 0.07 0  0.6 0.07 0  0.61 0.07 0  0.62 0.07 0  0.63 0.07 0  0.64 0.07 0  0.65 0.07 0  0.66 0.07 0  0.67 0.07 0  0.68 0.07 0  0.69 0.07 0  0.7 0.07 0  0.71 0.07 0  0.72 0.07 0  0.73 0.07 0  0.74 0.07 0  0.75 0.07 0  0.76 0.07 0  0.77
[...]
<PointData  Scalars="u"> 
<DataArray  type="Float32"  Name="u"  format="ascii">5.324862e-02  5.324893e-02  5.324964e-02  5.325077e-02  5.325234e-02  5.325433e-02  5.325675e-02  5.325960e-02  5.326286e-02  5.326653e-02  5.327060e-02  5.327506e-02  5.327991e-02  5.328513e-02  5.329072e-02  5.329666e-02  5.330295e-02  5.330957e-02  5.331652e-02  5.332378e-02  5.333135e-02  5.333920e-02  5.334733e-02  5.335573e-02  5.336438e-02  5.337328e-02  5.338240e-02  5.339174e-02  5.340128e-02  5.341102e-02  5.342094e-02  5.343102e-02  5.344126e-02  5.345164e-02  5.346215e-02  5.347277e-02  5.348350e-02  5.349433e-02  5.350523e-02  5.351620e-02  5.352722e-02  5.353829e-02  5.354939e-02  5.356051e-02  5.357164e-02  5.358276e-02  5.359387e-02  5.360496e-02  5.361601e-02  5.362701e-02  5.363795e-02  5.364883e-02  5.365963e-02  5.367034e-02  5.368096e-02  5.369146e-02  5.370185e-02  5.371212e-02  5.372226e-02  5.373225e-02  5.374209e-02  5.375177e-02  5.376129e-02  5.377064e-02  5.377980e-02  5.378878e-02  5.379757e-02  5.380615e-02  5.381453e-02  5.382270e-02  5.383065e-02  5.383837e-02  5.384587e-02  5.385314e-02  5.386017e-02  5.386697e-02  5.387351e-02  5.387981e-02  5.388586e-02  5.389165e-02  5.389719e-02  5.390246e-02  5.390747e-02  5.391222e-02  5.391671e-02  5.392092e-02  5.392487e-02  5.392855e-02  5.393195e-02  5.393509e-02  5.393795e-02  5.394054e-02  5.394285e-02  5.394490e-02  5.394667e-02  5.394817e-02  5.394940e-02  5.395037e-02  5.395106e-02  5.395150e-02  5.395172e-02  5.324901e-02  5.324925e-02  5.324995e-02  5.325108e-02  5.325264e-02  5.325464e-02  5.325706e-02  5.325991e-02  5.326317e-02  5.326684e-02  5.327092e-02  5.327538e-02  5.328023e-02  5.328546e-02  5.329105e-02  5.329700e-02  5.330330e-02  5.330993e-02  5.331688e-02  5.332415e-02  5.333172e-02  5.333957e-02  5.334771e-02  5.335611e-02  5.336477e-02  5.337367e-02  5.338280e-02  5.339215e-02  5.340170e-02  5.341144e-02  5.342136e-02  5.343145e-02  5.344169e-02  5.345208e-02  5.346259e-02  5.347323e-02  5.348396e-02  5.349479e-02  5.350570e-02  5.351667e-02  5.352770e-02  5.353877e-02  5.354988e-02  5.356100e-02  5.357214e-02  5.358327e-02  5.359438e-02  5.360547e-02  5.361653e-02  5.362753e-02  5.363848e-02  5.364936e-02  5.366017e-02  5.367088e-02  5.368150e-02  5.369201e-02  5.370241e-02  5.371268e-02  5.372282e-02  5.373281e-02  5.374266e-02  5.375235e-02  5.376187e-02  5.377122e-02  5.378038e-02  5.378937e-02  5.379815e-02  5.380674e-02  5.381512e-02  5.382329e-02  5.383124e-02  5.383897e-02  5.384648e-02  5.385375e-02  5.386078e-02  5.386757e-02  5.387412e-02  5.388042e-02  5.388647e-02  5.389226e-02  5.389780e-02  5.390308e-02  5.390809e-02  5.391284e-02  5.391732e-02  5.392154e-02  5.392549e-02  5.392916e-02  5.393257e-02  5.393570e-02  5.393857e-02  5.394116e-02  5.394347e-02  5.394552e-02  5.394729e-02  5.394879e-02  5.395002e-02  5.395098e-02  5.395167e-02  5.395210e-02  5.395225e-02  5.324994e-02  5.325017e-02  5.325085e-02  5.325198e-02  5.325355e-02  5.325555e-02  5.325798e-02  5.326084e-02  5.326411e-02  5.326779e-02  5.327187e-02  5.327635e-02  5.328122e-02  5.328646e-02  5.329206e-02  5.329802e-02  5.330433e-02  5.331098e-02  5.331795e-02  5.332523e-02  5.333281e-02  5.334069e-02  5.334884e-02  5.335726e-02  5.336593e-02  5.337485e-02  5.338399e-02  5.339336e-02  5.340292e-02  5.341268e-02  5.342262e-02  5.343273e-02  5.344299e-02  5.345339e-02  5.346392e-02  5.347457e-02  5.348532e-02  5.349617e-02  5.350709e-02  5.351808e-02  5.352913e-02  5.354022e-02  5.355134e-02  5.356248e-02  5.357363e-02  5.358477e-02  5.359590e-02  5.360701e-02  5.361807e-02  5.362909e-02  5.364006e-02  5.365095e-02  5.366177e-02  5.367250e-02  5.368313e-02  5.369365e-02  5.370406e-02  5.371434e-02  5.372449e-02  5.373450e-02  5.374435e-02  5.375405e-02  5.376358e-02  5.377294e-02  5.378212e-02  5.379111e-02  5.379990e-02  5.380850e-02  5.381689e-02  5.382506e-02  5.383302e-02  5.384076e-02  5.384827e-02  5.385554e-02  5.386258e-02  5.386938e-02  5.387593e-02  5.388223e-02  5.388829e-02  5.389408e-02  5.389962e-02  5.390490e-02  5.390992e-02  5.391467e-02  5.391916e-02  5.392337e-02  5.392732e-02  5.393100e-02  5.393441e-02  5.393754e-02  5.394040e-02  5.394299e-02  5.394531e-02  5.394735e-02  5.394913e-02  5.395062e-02  5.395185e-02  5.395281e-02  5.395350e-02  5.395391e-02  5.395405e-02  5.325144e-02  5.325167e-02  5.325235e-02  5.325348e-02  5.325506e-02  5.325707e-02  5.325951e-02  5.326238e-02  5.326566e-02  5.326936e-02  5.327346e-02  5.327796e-02  5.328284e-02  5.328810e-02  5.329373e-02  5.329972e-02  5.330605e-02  5.331272e-02  5.331971e-02  5.332702e-02  5.333463e-02  5.334253e-02  5.335071e-02  5.335915e-02  5.336785e-02  5.337679e-02  5.338597e-02  5.339536e-02  5.340495e-02  5.341474e-02  5.342470e-02  5.343484e-02  5.344513e-02  5.345556e-02  5.346611e-02  5.347679e-02  5.348757e-02  5.349844e-02  5.350939e-02  5.352041e-02  5.353148e-02  5.354259e-02  5.355374e-02  5.356491e-02  5.357608e-02  5.358725e-02  5.359840e-02  5.360953e-02  5.362062e-02  5.363167e-02  5.364265e-02  5.365357e-02  5.366441e-02  5.367516e-02  5.368581e-02  5.369635e-02  5.370678e-02  5.371708e-02  5.372725e-02  5.373727e-02  5.374714e-02  5.375686e-02  5.376640e-02  5.377578e-02  5.378497e-02  5.379397e-02  5.380278e-02  5.381139e-02  5.381979e-02  5.382798e-02  5.383595e-02  5.384370e-02  5.385121e-02  5.385850e-02  5.386555e-02  5.387235e-02  5.387891e-02  5.388522e-02  5.389128e-02  5.389709e-02  5.390263e-02  5.390791e-02  5.391294e-02  5.391769e-02  5.392218e-02  5.392640e-02  5.393035e-02  5.393403e-02  5.393744e-02  5.394057e-02  5.394344e-02  5.394603e-02  5.394834e-02  5.395038e-02  5.395215e-02  5.395365e-02  5.395488e-02  5.395583e-02  5.395651e-02  5.395692e-02  5.395706e-02  5.325352e-02  5.325375e-02  5.325444e-02  5.325557e-02  5.325716e-02  5.325918e-02  5.326164e-02  5.326452e-02  5.326783e-02  5.327155e-02  5.327568e-02  5.328020e-02  5.328511e-02  5.329040e-02  5.329605e-02  5.330207e-02  5.330843e-02  5.331513e-02  5.332216e-02  5.332950e-02  5.333715e-02  5.334508e-02  5.335330e-02  5.336178e-02  5.337051e-02  5.337949e-02  5.338870e-02  5.339813e-02  5.340776e-02  5.341759e-02  5.342759e-02  5.343776e-02  5.344809e-02  5.345856e-02  5.346915e-02  5.347987e-02  5.349068e-02  5.350159e-02  5.351258e-02  5.352363e-02  5.353474e-02  5.354589e-02  5.355707e-02  5.356827e-02  5.357948e-02  5.359068e-02  5.360187e-02  5.361303e-02  5.362415e-02  5.363523e-02  5.364624e-02  5.365719e-02  5.366806e-02  5.367884e-02  5.368952e-02  5.370009e-02  5.371054e-02  5.372087e-02  5.373106e-02  5.374111e-02  5.375100e-02  5.376074e-02  5.377031e-02  5.377970e-02  5.378892e-02  5.379794e-02  5.380677e-02  5.381539e-02  5.382381e-02  5.383202e-02  5.384000e-02  5.384776e-02  5.385530e-02  5.386259e-02  5.386965e-02  5.387647e-02  5.388304e-02  5.388936e-02  5.389543e-02  5.390124e-02  5.390679e-02  5.391208e-02  5.391711e-02  5.392187e-02  5.392636e-02  5.393059e-02  5.393454e-02  5.393822e-02  5.394163e-02  5.394477e-02  5.394763e-02  5.395022e-02  5.395254e-02  5.395458e-02  5.395635e-02  5.395785e-02  5.395907e-02  5.396002e-02  5.396070e-02  5.396111e-02  5.396124e-02  5.325618e-02  5.325641e-02  5.325710e-02  5.325825e-02  5.325984e-02  5.326188e-02  5.326436e-02  5.326727e-02  5.327060e-02  5.327435e-02  5.327851e-02  5.328306e-02  5.328800e-02  5.329333e-02  5.329902e-02  5.330508e-02  5.331148e-02  5.331822e-02  5.332529e-02  5.333267e-02  5.334036e-02  5.334834e-02  5.335660e-02  5.336513e-02  5.337391e-02  5.338294e-02  5.339219e-02  5.340167e-02  5.341135e-02  5.342122e-02  5.343127e-02  5.344149e-02  5.345186e-02  5.346238e-02  5.347302e-02  5.348378e-02  5.349464e-02  5.350560e-02  5.351663e-02  5.352773e-02  5.353888e-02  5.355008e-02  5.356131e-02  5.357255e-02  5.358380e-02  5.359505e-02  5.360628e-02  5.361748e-02  5.362864e-02  5.363976e-02  5.365081e-02  5.366180e-02  5.367270e-02  5.368352e-02  5.369423e-02  5.370484e-02  5.371532e-02  5.372568e-02  5.373591e-02  5.374599e-02  5.375591e-02  5.376568e-02  5.377528e-02  5.378470e-02  5.379393e-02  5.380298e-02  5.381183e-02  5.382048e-02  5.382892e-02  5.383715e-02  5.384515e-02  5.385293e-02  5.386048e-02  5.386780e-02  5.387487e-02  5.388170e-02  5.388829e-02  5.389462e-02  5.390070e-02  5.390652e-02  5.391208e-02  5.391738e-02  5.392242e-02  5.392719e-02  5.393168e-02  5.393591e-02  5.393987e-02  5.394356e-02  5.394697e-02  5.395011e-02  5.395297e-02  5.395556e-02  5.395788e-02  5.395992e-02  5.396169e-02  5.396318e-02  5.396440e-02  5.396535e-02  5.396603e-02  5.396643e-02  5.396657e-02  5.325942e-02  5.325965e-02  5.326035e-02  5.326151e-02  5.326312e-02  5.326518e-02  5.326768e-02  5.327061e-02  5.327397e-02  5.327775e-02  5.328194e-02  5.328654e-02  5.329152e-02  5.329689e-02  5.330262e-02  5.330872e-02  5.331517e-02  5.332196e-02  5.332908e-02  5.333651e-02  5.334425e-02  5.335229e-02  5.336060e-02  5.336918e-02  5.337802e-02  5.338710e-02  5.339642e-02  5.340595e-02  5.341568e-02  5.342561e-02  5.343572e-02  5.344600e-02  5.345643e-02  5.346700e-02  5.347770e-02  5.348852e-02  5.349944e-02  5.351045e-02  5.352153e-02  5.353269e-02  5.354390e-02  5.355515e-02  5.356643e-02  5.357772e-02  5.358902e-02  5.360032e-02  5.361160e-02  5.362285e-02  5.363407e-02  5.364523e-02  5.365633e-02  5.366736e-02  5.367831e-02  5.368917e-02  5.369993e-02  5.371057e-02  5.372110e-02  5.373150e-02  5.374176e-02  5.375188e-02  5.376184e-02  5.377164e-02  5.378127e-02  5.379073e-02  5.380000e-02  5.380908e-02  5.381796e-02  5.382663e-02  5.383510e-02  5.384335e-02  5.385138e-02  5.385918e-02  5.386675e-02  5.387408e-02  5.388118e-02  5.388803e-02  5.389463e-02  5.390098e-02  5.390707e-02  5.391290e-02  5.391848e-02  5.392379e-02  5.392883e-02  5.393361e-02  5.393811e-02  5.394235e-02  5.394631e-02  5.395000e-02  5.395342e-02  5.395656e-02  5.395942e-02  5.396202e-02  5.396433e-02  5.396637e-02  5.396814e-02  5.396963e-02  5.397085e-02  5.397180e-02  5.397247e-02  5.397288e-02  5.397301e-02  5.326322e-02  5.326346e-02  5.326416e-02  5.326533e-02  5.326696e-02  5.326905e-02  5.327157e-02  5.327454e-02  5.327793e-02  5.328175e-02  5.328598e-02  5.329062e-02  5.329565e-02  5.330106e-02  5.330685e-02  5.331300e-02  5.331951e-02  5.332635e-02  5.333353e-02  5.334102e-02  5.334882e-02  5.335691e-02  5.336529e-02  5.337393e-02  5.338284e-02  5.339198e-02  5.340136e-02  5.341096e-02  5.342076e-02  5.343075e-02  5.344093e-02  5.345127e-02  5.346177e-02  5.347241e-02  5.348317e-02  5.349405e-02  5.350504e-02  5.351611e-02  5.352727e-02  5.353849e-02  5.354976e-02  5.356107e-02  5.357241e-02  5.358377e-02  5.359513e-02  5.360649e-02  5.361783e-02  5.362913e-02  5.364040e-02  5.365162e-02  5.366278e-02  5.367386e-02  5.368486e-02  5.369577e-02  5.370658e-02  5.371728e-02  5.372785e-02  5.373830e-02  5.374861e-02  5.375877e-02  5.376877e-02  5.377861e-02  5.378828e-02  5.379777e-02  5.380708e-02  5.381619e-02  5.382510e-02  5.383381e-02  5.384231e-02  5.385059e-02  5.385865e-02  5.386647e-02  5.387407e-02  5.388143e-02  5.388854e-02  5.389541e-02  5.390203e-02  5.390840e-02  5.391451e-02  5.392036e-02  5.392594e-02  5.393127e-02  5.393632e-02  5.394111e-02  5.394562e-02  5.394986e-02  5.395383e-02  5.395753e-02  5.396095e-02  5.396409e-02  5.396696e-02  5.396956e-02  5.397187e-02  5.397391e-02  5.397568e-02  5.397717e-02  5.397839e-02  5.397934e-02  5.398001e-02  5.398041e-02  5.398054e-02  5.326759e-02  5.326783e-02  5.326854e-02  5.326973e-02  5.327138e-02  5.327349e-02  5.327604e-02  5.327904e-02  5.328248e-02  5.328634e-02  5.329061e-02  5.329530e-02  5.330038e-02  5.330585e-02  5.331169e-02  5.331790e-02  5.332447e-02  5.333137e-02  5.333862e-02  5.334617e-02  5.335404e-02  5.336221e-02  5.337065e-02  5.337937e-02  5.338834e-02  5.339756e-02  5.340701e-02  5.341668e-02  5.342656e-02  5.343663e-02  5.344688e-02  5.345729e-02  5.346787e-02  5.347858e-02  5.348942e-02  5.350038e-02  5.351143e-02  5.352258e-02  5.353381e-02  5.354510e-02  5.355644e-02  5.356783e-02  5.357924e-02  5.359066e-02  5.360210e-02  5.361352e-02  5.362493e-02  5.363630e-02  5.364763e-02  5.365891e-02  5.367013e-02  5.368128e-02  5.369234e-02  5.370331e-02  5.371417e-02  5.372492e-02  5.373555e-02  5.374605e-02  5.375641e-02  5.376662e-02  5.377667e-02  5.378655e-02  5.379627e-02  5.380580e-02  5.381515e-02  5.382430e-02  5.383325e-02  5.384200e-02  5.385053e-02  5.385884e-02  5.386693e-02  5.387479e-02  5.388241e-02  5.388980e-02  5.389694e-02  5.390383e-02  5.391047e-02  5.391686e-02  5.392299e-02  5.392885e-02  5.393446e-02  5.393979e-02  5.394486e-02  5.394966e-02  5.395418e-02  5.395844e-02  5.396241e-02  5.396612e-02  5.396954e-02  5.397269e-02  5.397556e-02  5.397816e-02  5.398047e-02  5.398252e-02  5.398428e-02  5.398577e-02  5.398699e-02  5.398794e-02  5.398861e-02  5.398901e-02  5.398914e-02  5.327251e-02  5.327276e-02  5.327348e-02  5.327468e-02  5.327636e-02  5.327849e-02  5.328108e-02  5.328412e-02  5.328759e-02  5.329150e-02  5.329583e-02  5.330056e-02  5.330570e-02  5.331123e-02  5.331714e-02  5.332341e-02  5.333004e-02  5.333702e-02  5.334433e-02  5.335197e-02  5.335991e-02  5.336815e-02  5.337667e-02  5.338547e-02  5.339452e-02  5.340382e-02  5.341335e-02  5.342311e-02  5.343306e-02  5.344322e-02  5.345355e-02  5.346405e-02  5.347471e-02  5.348550e-02  5.349642e-02  5.350746e-02  5.351860e-02  5.352984e-02  5.354114e-02  5.355251e-02  5.356394e-02  5.357540e-02  5.358689e-02  5.359839e-02  5.360990e-02  5.362140e-02  5.363288e-02  5.364433e-02  5.365573e-02  5.366708e-02  5.367837e-02  5.368958e-02  5.370071e-02  5.371174e-02  5.372267e-02  5.373348e-02  5.374417e-02  5.375473e-02  5.376514e-02  5.377541e-02  5.378551e-02  5.379545e-02  5.380521e-02  5.381480e-02  5.382419e-02  5.383339e-02  5.384238e-02  5.385117e-02  5.385974e-02  5.386809e-02  5.387621e-02  5.388410e-02  5.389176e-02  5.389917e-02  5.390634e-02  5.391326e-02  5.391993e-02  5.392634e-02  5.393249e-02  5.393837e-02  5.394399e-02  5.394934e-02  5.395443e-02  5.395924e-02  5.396377e-02  5.396804e-02  5.397202e-02  5.397573e-02  5.397916e-02  5.398232e-02  5.398519e-02  5.398779e-02  5.399011e-02  5.399215e-02  5.399392e-02  5.399541e-02  5.399663e-02  5.399757e-02  5.399824e-02  5.399864e-02  5.399877e-02  5.327799e-02  5.327823e-02  5.327897e-02  5.328019e-02  5.328189e-02  5.328405e-02  5.328668e-02  5.328975e-02  5.329327e-02  5.329723e-02  5.330161e-02  5.330641e-02  5.331161e-02  5.331720e-02  5.332317e-02  5.332952e-02  5.333623e-02  5.334328e-02  5.335067e-02  5.335838e-02  5.336641e-02  5.337473e-02  5.338334e-02  5.339222e-02  5.340136e-02  5.341075e-02  5.342037e-02  5.343021e-02  5.344026e-02  5.345051e-02  5.346093e-02  5.347152e-02  5.348227e-02  5.349315e-02  5.350417e-02  5.351530e-02  5.352653e-02  5.353785e-02  5.354925e-02  5.356071e-02  5.357222e-02  5.358377e-02  5.359534e-02  5.360693e-02  5.361852e-02  5.363010e-02  5.364166e-02  5.365319e-02  5.366468e-02  5.367610e-02  5.368747e-02  5.369875e-02  5.370995e-02  5.372106e-02  5.373205e-02  5.374294e-02  5.375369e-02  5.376431e-02  5.377479e-02  5.378511e-02  5.379528e-02  5.380527e-02  5.381509e-02  5.382473e-02  5.383417e-02  5.384342e-02  5.385246e-02  5.386129e-02  5.386990e-02  5.387829e-02  5.388646e-02  5.389438e-02  5.390208e-02  5.390952e-02  5.391672e-02  5.392367e-02  5.393036e-02  5.393680e-02  5.394297e-02  5.394888e-02  5.395452e-02  5.395989e-02  5.396499e-02  5.396982e-02  5.397437e-02  5.397864e-02  5.398263e-02  5.398635e-02  5.398979e-02  5.399295e-02  5.399583e-02  5.399843e-02  5.400076e-02  5.400280e-02  5.400457e-02  5.400606e-02  5.400727e-02  5.400822e-02  5.400889e-02  5.400929e-02  5.400942e-02  5.328400e-02  5.328425e-02  5.328500e-02  5.328624e-02  5.328796e-02  5.329016e-02  5.329282e-02  5.329594e-02  5.329951e-02  5.330352e-02  5.330796e-02  5.331282e-02  5.331808e-02  5.332374e-02  5.332979e-02  5.333622e-02  5.334300e-02  5.335014e-02  5.335761e-02  5.336541e-02  5.337353e-02  5.338194e-02  5.339064e-02  5.339961e-02  5.340885e-02  5.341833e-02  5.342805e-02  5.343799e-02  5.344814e-02  5.345848e-02  5.346900e-02  5.347969e-02  5.349054e-02  5.350152e-02  5.351264e-02  5.352386e-02  5.353519e-02  5.354661e-02  5.355810e-02  5.356966e-02  5.358126e-02  5.359291e-02  5.360458e-02  5.361626e-02  5.362794e-02  5.363961e-02  5.365126e-02  5.366288e-02  5.367444e-02  5.368596e-02  5.369740e-02  5.370877e-02  5.372005e-02  5.373123e-02  5.374230e-02  5.375326e-02  5.376408e-02  5.377477e-02  5.378532e-02  5.379571e-02  5.380594e-02  5.381599e-02  5.382587e-02  5.383557e-02  5.384507e-02  5.385437e-02  5.386346e-02  5.387234e-02  5.388100e-02  5.388943e-02  5.389764e-02  5.390561e-02  5.391334e-02  5.392082e-02  5.392806e-02  5.393504e-02  5.394176e-02  5.394822e-02  5.395442e-02  5.396035e-02  5.396602e-02  5.397141e-02  5.397652e-02  5.398136e-02  5.398593e-02  5.399022e-02  5.399422e-02  5.399795e-02  5.400140e-02  5.400456e-02  5.400745e-02  5.401005e-02  5.401238e-02  5.401443e-02  5.401620e-02  5.401769e-02  5.401890e-02  5.401985e-02  5.402052e-02  5.402091e-02  5.402105e-02  5.329054e-02  5.329080e-02  5.329156e-02  5.329282e-02  5.329457e-02  5.329680e-02  5.329950e-02  5.330267e-02  5.330629e-02  5.331036e-02  5.331486e-02  5.331978e-02  5.332512e-02  5.333086e-02  5.333698e-02  5.334349e-02  5.335036e-02  5.335758e-02  5.336515e-02  5.337304e-02  5.338125e-02  5.338976e-02  5.339856e-02  5.340763e-02  5.341697e-02  5.342655e-02  5.343638e-02  5.344642e-02  5.345667e-02  5.346712e-02  5.347775e-02  5.348854e-02  5.349949e-02  5.351059e-02  5.352181e-02  5.353314e-02  5.354457e-02  5.355610e-02  5.356769e-02  5.357935e-02  5.359106e-02  5.360280e-02  5.361457e-02  5.362635e-02  5.363813e-02  5.364990e-02  5.366165e-02  5.367335e-02  5.368502e-02  5.369662e-02  5.370815e-02  5.371961e-02  5.373097e-02  5.374224e-02  5.375339e-02  5.376442e-02  5.377533e-02  5.378609e-02  5.379671e-02  5.380717e-02  5.381747e-02  5.382759e-02  5.383754e-02  5.384729e-02  5.385685e-02  5.386621e-02  5.387536e-02  5.388429e-02  5.389300e-02  5.390149e-02  5.390974e-02  5.391775e-02  5.392552e-02  5.393304e-02  5.394032e-02  5.394733e-02  5.395409e-02  5.396058e-02  5.396681e-02  5.397276e-02  5.397845e-02  5.398386e-02  5.398900e-02  5.399386e-02  5.399844e-02  5.400274e-02  5.400676e-02  5.401050e-02  5.401395e-02  5.401713e-02  5.402002e-02  5.402263e-02  5.402496e-02  5.402701e-02  5.402878e-02  5.403027e-02  5.403149e-02  5.403243e-02  5.403310e-02  5.403350e-02  5.403363e-02  5.329761e-02  5.329787e-02  5.329864e-02  5.329992e-02  5.330170e-02  5.330397e-02  5.330671e-02  5.330993e-02  5.331361e-02  5.331773e-02  5.332230e-02  5.332729e-02  5.333271e-02  5.333852e-02  5.334473e-02  5.335132e-02  5.335828e-02  5.336560e-02  5.337326e-02  5.338125e-02  5.338956e-02  5.339817e-02  5.340708e-02  5.341626e-02  5.342570e-02  5.343540e-02  5.344533e-02  5.345548e-02  5.346585e-02  5.347641e-02  5.348715e-02  5.349806e-02  5.350912e-02  5.352033e-02  5.353166e-02  5.354311e-02  5.355465e-02  5.356629e-02  5.357799e-02  5.358976e-02  5.360158e-02  5.361343e-02  5.362531e-02  5.363720e-02  5.364908e-02  5.366095e-02  5.367280e-02  5.368461e-02  5.369637e-02  5.370807e-02  5.371970e-02  5.373124e-02  5.374270e-02  5.375405e-02  5.376529e-02  5.377641e-02  5.378740e-02  5.379824e-02  5.380894e-02  5.381948e-02  5.382985e-02  5.384004e-02  5.385006e-02  5.385988e-02  5.386950e-02  5.387892e-02  5.388813e-02  5.389712e-02  5.390589e-02  5.391442e-02  5.392272e-02  5.393078e-02  5.393860e-02  5.394616e-02  5.395347e-02  5.396053e-02  5.396732e-02  5.397384e-02  5.398010e-02  5.398609e-02  5.399180e-02  5.399723e-02  5.400239e-02  5.400727e-02  5.401187e-02  5.401619e-02  5.402022e-02  5.402397e-02  5.402743e-02  5.403062e-02  5.403352e-02  5.403613e-02  5.403847e-02  5.404052e-02  5.404229e-02  5.404378e-02  5.404500e-02  5.404594e-02  5.404661e-02  5.404701e-02  5.404714e-02  5.330519e-02  5.330545e-02  5.330624e-02  5.330754e-02  5.330935e-02  5.331165e-02  5.331444e-02  5.331771e-02  5.332145e-02 